% Model:              JapanTrench_CLee.mph
% Version:            COMSOL 5.5.0.359
% Date:               Jul 9 2022, 14:06
% Dimension:          1
% Nodes:              2725
% Expressions:        1
% Description:        Line graph
% x                       Height
-250                      44.87517663923382
-249.7916666666676        44.87489758473797
-249.58333333333522       44.874532373071105
-249.3750000000028        44.87408100423321
-249.16666666666947       44.873679848083874
-248.95833333333616       44.87326069696277
-248.7500000000028        44.87282355086987
-248.54166666666947       44.872423698984214
-248.33333333333613       44.87200516621912
-248.12500000000279       44.8715679525746
-247.91666666666944       44.87116587358628
-247.70833333333613       44.87074579424356
-247.50000000000279       44.87030771454647
-247.29166666666944       44.86990752866183
-247.0833333333361        44.86948818787293
-246.87500000000276       44.869049692179736
-246.6666666666694        44.868649346945894
-246.4583333333361        44.86823002536893
-246.25000000000276       44.86779172744886
-246.0416666666694        44.86739126010811
-245.83333333333607       44.866971940780026
-245.62500000000273       44.86653376946457
-245.41666666666939       44.866133287924534
-245.20833333333607       44.86571397777259
-245.00000000000273       44.865275839008746
-244.79166666666939       44.86487541941755
-244.58333333333604       44.864456145605594
-244.3750000000027        44.86401801757288
-244.16666666666936       44.86361764934543
-243.95833333333604       44.86319841223712
-243.7500000000027        44.862760306247935
-243.54166666666936       44.862359975764235
-243.33333333333601       44.86194077380618
-243.12500000000267       44.861502700373755
-242.91666666666933       44.86110240045439
-242.70833333333601       44.860683232307785
-242.50000000000267       44.86024519593391
-242.29166666666933       44.859844925119255
-242.083333333336         44.85942578981215
-241.87500000000264       44.85898779001262
-241.6666666666693        44.85858755004586
-241.458333333336         44.85816844785418
-241.25000000000261       44.857730483437585
-241.0416666666693        44.85733027522134
-240.83333333333596       44.856911206421096
-240.62500000000261       44.856473277036834
-240.41666666666927       44.85607310068276
-240.20833333333596       44.85565406529914
-240.0000000000026        44.85521617088595
-239.79166666666927       44.854816026442286
-239.58333333333593       44.85439702449005
-239.3750000000026        44.8539591650292
-239.16666666666924       44.853559052511805
-238.95833333333593       44.85314008399799
-238.75000000000256       44.85270225948777
-238.54166666666924       44.85230217890289
-238.3333333333359        44.85188324382816
-238.12500000000256       44.851445454263605
-237.91666666666922       44.851045405614514
-237.7083333333359        44.850626503981594
-237.50000000000253       44.85018874936481
-237.29166666666922       44.84978873265071
-237.08333333333587       44.84936986445781
-236.87500000000253       44.848932144786126
-236.6666666666692        44.84853216000459
-236.45833333333587       44.848113325250004
-236.2500000000025        44.84767564052237
-236.0416666666692        44.847275687673196
-235.83333333333584       44.84685688635458
-235.6250000000025        44.84641923656649
-235.41666666666916       44.84601931564386
-235.20833333333584       44.845600547756774
-235.00000000000247       44.845162932905254
-234.79166666666916       44.84476304390941
-234.58333333333582       44.84434430945191
-234.37500000000247       44.84390672953274
-234.16666666666913       44.8435068724588
-233.95833333333582       44.84308817142744
-233.75000000000244       44.84265062643865
-233.54166666666913       44.84225080128134
-233.3333333333358        44.84183213367138
-233.12500000000244       44.84139462360878
-232.9166666666691        44.84099483036788
-232.7083333333358        44.840576196176265
-232.50000000000242       44.840138721033874
-232.2916666666691        44.83973895970324
-232.08333333333576       44.839320358925
-231.87500000000242       44.838882918699134
-231.66666666666907       44.838483189276296
-231.45833333333576       44.838064621908686
-231.2500000000024        44.83762721659632
-231.04166666666907       44.83722751907781
-230.83333333333573       44.83680898511686
-230.6250000000024        44.836371614713435
-230.41666666666904       44.83597194909367
-230.20833333333573       44.835553448535194
-230.00000000000236       44.835116113038005
-229.79166666666904       44.83471647931433
-229.5833333333357        44.83429801215413
-229.37500000000236       44.833860711557364
-229.16666666666902       44.83346110972415
-228.9583333333357        44.8330426759566
-228.75000000000233       44.8326054102547
-228.54166666666902       44.83220584031144
-228.33333333333567       44.83178743993515
-228.12500000000233       44.831350209125816
-227.916666666669         44.8309506710659
-227.70833333333567       44.83053230407492
-227.5000000000023        44.83009510815289
-227.29166666666896       44.829695601972865
-227.08333333333564       44.82927726836373
-226.8750000000023        44.82884010732545
-226.66666666666896       44.82844063302265
-226.45833333333564       44.82802233279231
-226.25000000000227       44.82758520663441
-226.04166666666893       44.82718576420402
-225.83333333333562       44.82676749734679
-225.62500000000227       44.8263304060627
-225.41666666666893       44.82593099550033
-225.20833333333562       44.825512762012615
-225.00000000000225       44.82507570559954
-224.7916666666689        44.82467632690368
-224.5833333333356        44.82425812678177
-224.37500000000225       44.823821105233776
-224.1666666666689        44.8234217583984
-223.9583333333356        44.82300359163842
-223.75000000000222       44.82256660495382
-223.54166666666887       44.822167289974175
-223.33333333333556       44.821749156570455
-223.12500000000222       44.82131220474263
-222.91666666666887       44.82091292161686
-222.70833333333556       44.82049482156652
-222.5000000000022        44.82005790459158
-222.29166666666885       44.81965865331417
-222.08333333333553       44.819240586612956
-221.8750000000022        44.81880370448796
-221.66666666666885       44.81840448505547
-221.45833333333553       44.81798645169891
-221.25000000000216       44.81754960441822
-221.04166666666882       44.81715041682577
-220.8333333333355        44.81673241680947
-220.62500000000216       44.816295604369316
-220.41666666666882       44.815896448614566
-220.2083333333355        44.81547848193457
-220.00000000000213       44.81504170432929
-219.7916666666688        44.81464258040615
-219.58333333333547       44.81422464705718
-219.37500000000213       44.813787904282364
-219.1666666666688        44.813388812188784
-218.95833333333547       44.81297091216752
-218.7500000000021        44.812534204218565
-218.54166666666876       44.812135143949654
-218.33333333333545       44.81171727725206
-218.1250000000021        44.81128060412577
-217.91666666666876       44.810881575675594
-217.70833333333545       44.810463742295454
-217.50000000000207       44.81002710398534
-217.29166666666873       44.80962810735108
-217.08333333333542       44.8092103072851
-216.87500000000207       44.80877370378738
-216.66666666666873       44.80837473896274
-216.45833333333542       44.80795697220449
-216.25000000000205       44.80752040351261
-216.0416666666687        44.80712147049585
-215.8333333333354        44.80670373704198
-215.62500000000205       44.806267203150966
-215.4166666666687        44.80586830193523
-215.2083333333354        44.80545060177994
-215.00000000000202       44.805014102685064
-214.79166666666868       44.804615233265814
-214.58333333333536       44.80419756640431
-214.37500000000202       44.80376110210054
-214.16666666666868       44.803362264472725
-213.95833333333536       44.80294463089954
-213.750000000002         44.802508201380995
-213.54166666666865       44.80210939553911
-213.3333333333353        44.801691795248054
-213.125000000002         44.80125540050775
-212.91666666666865       44.8008566264453
-212.70833333333533       44.80043905942962
-212.50000000000196       44.80000269946068
-212.29166666666862       44.799603957173815
-212.08333333333528       44.79918642342892
-211.87500000000196       44.79875009822598
-211.66666666666862       44.79835138770613
-211.4583333333353        44.7979338872241
-211.25000000000193       44.79749759677991
-211.0416666666686        44.79709891802267
-210.83333333333525       44.796681450796825
-210.62500000000193       44.79624519510236
-210.4166666666686        44.79584654810009
-210.20833333333528       44.79542911412338
-210.0000000000019        44.794992893172264
-209.79166666666856       44.79459427791711
-209.58333333333522       44.79417687718099
-209.3750000000019        44.79374069096389
-209.16666666666856       44.79334210744854
-208.95833333333525       44.79292473994444
-208.75000000000188       44.79248858845154
-208.54166666666853       44.79209003666829
-208.3333333333352        44.79167270238808
-208.12500000000188       44.79123658561088
-207.91666666666853       44.79083806555054
-207.70833333333522       44.79042076448409
-207.50000000000185       44.78998468241153
-207.2916666666685        44.789586194063475
-207.08333333333516       44.78916892620045
-206.87500000000185       44.78873287882242
-206.6666666666685        44.788334422177044
-206.4583333333352        44.78791718750603
-206.25000000000182       44.78748117480938
-206.04166666666848       44.78708274985394
-205.83333333333513       44.7866655483627
-205.62500000000182       44.78622957033569
-205.41666666666848       44.785831177060714
-205.20833333333516       44.785414008737284
-205.0000000000018        44.78497806536537
-204.79166666666845       44.78457970375928
-204.5833333333351        44.78416256858949
-204.3750000000018        44.783726659856
-204.16666666666845       44.78332832990149
-203.95833333333513       44.78291122787068
-203.75000000000176       44.78247535376352
-203.54166666666842       44.78207705544802
-203.33333333333508       44.781659986539744
-203.12500000000176       44.781224147038664
-202.91666666666842       44.78082588034542
-202.7083333333351        44.780408844542734
-202.50000000000173       44.77997303963061
-202.2916666666684        44.7795748045438
-202.08333333333505       44.77915780182861
-201.87500000000173       44.77872203148501
-201.6666666666684        44.77832382798485
-201.45833333333508       44.777906858336536
-201.2500000000017        44.77747112254006
-201.04166666666836       44.777072950608876
-200.83333333333502       44.77665601400757
-200.62500000000168       44.77622031273611
-200.41666666666836       44.775822172350885
-200.20833333333505       44.775405268773234
-200.00000000000168       44.77496960200319
-199.79166666666833       44.77457149314069
-199.583333333335         44.77415462256005
-199.37500000000165       44.77371899026126
-199.16666666666833       44.77332091290013
-198.95833333333502       44.77290407529352
-198.75000000000165       44.77246847744139
-198.5416666666683        44.77207043155419
-198.33333333333496       44.77165362689198
-198.12500000000162       44.77121806345479
-197.9166666666683        44.77082004901419
-197.708333333335         44.77040327726649
-197.50000000000162       44.769967748211656
-197.29166666666828       44.76956976518724
-197.08333333333493       44.76915302632232
-196.8750000000016        44.76871753161685
-196.66666666666828       44.76831957997898
-196.45833333333496       44.76790287396327
-196.2500000000016        44.7674674135697
-196.04166666666825       44.767069493283245
-195.8333333333349        44.76665282008004
-195.62500000000156       44.76621739396006
-195.41666666666825       44.76581950498935
-195.20833333333493       44.76540286455977
-195.00000000000156       44.76496747267128
-194.79166666666822       44.764569614979735
-194.58333333333488       44.76415300728376
-194.37500000000153       44.7637176495833
-194.16666666666822       44.763319823128604
-193.9583333333349        44.7629032481221
-193.75000000000153       44.762467924563765
-193.5416666666682        44.76207012930515
-193.33333333333485       44.761653586942806
-193.1250000000015        44.76121829747672
-192.9166666666682        44.76082053336662
-192.70833333333488       44.760404023599335
-192.5000000000015        44.759968768174886
-192.29166666666816       44.759571035166516
-192.08333333333482       44.75915455794283
-191.87500000000148       44.758719336503795
-191.66666666666816       44.75832163454689
-191.45833333333485       44.757905189812234
-191.25000000000148       44.7574700022998
-191.04166666666814       44.757072331341114
-190.8333333333348        44.75665591903863
-190.62500000000145       44.756220765392364
-190.41666666666814       44.75582312537662
-190.20833333333482       44.75540674544676
-190.00000000000145       44.75497162560278
-189.7916666666681        44.754574016470244
-189.58333333333476       44.75415766884927
-189.37500000000142       44.753722582739826
-189.1666666666681        44.75332500442801
-188.9583333333348        44.75290868904924
-188.75000000000142       44.752473636603554
-188.54166666666808       44.752076089048
-188.33333333333474       44.75165980584226
-188.1250000000014        44.75122478698631
-187.91666666666805       44.750827270119345
-187.70833333333476       44.7504110190133
-187.5000000000014        44.74997603366817
-187.29166666666805       44.74957854741705
-187.0833333333347        44.749162328334634
-186.87500000000136       44.74872737642088
-186.66666666666802       44.748329920712045
-186.45833333333474       44.74791373357335
-186.25000000000136       44.74747881500479
-186.04166666666802       44.74708138976015
-185.83333333333468       44.746665234481824
-185.62500000000134       44.74623034916982
-185.416666666668         44.745832954307865
-185.2083333333347        44.74541683080347
-185.00000000000134       44.74498197865661
-184.791666666668         44.74458461409322
-184.58333333333465       44.74416852227253
-184.3750000000013        44.74373370319456
-184.16666666666796       44.7433363688397
-183.95833333333468       44.742920308606735
-183.7500000000013        44.74248552249569
-183.54166666666796       44.742088218260605
-183.33333333333462       44.741672189520315
-183.12500000000128       44.741237436274794
-182.91666666666794       44.74084016206273
-182.70833333333465       44.74042416471224
-182.50000000000128       44.739989444223276
-182.29166666666794       44.73959219993569
-182.0833333333346        44.73917623387007
-181.87500000000125       44.73874154602643
-181.6666666666679        44.738344331561365
-181.45833333333462       44.737928396671926
-181.25000000000125       44.73749374135811
-181.0416666666679        44.73709655660891
-180.83333333333456       44.736680652782326
-180.62500000000122       44.73624602987838
-180.41666666666788       44.73584887473588
-180.2083333333346        44.7354330018564
-180.00000000000122       44.7349984112399
-179.79166666666788       44.73460128558998
-179.58333333333454       44.73418544353584
-179.3750000000012        44.73375088507745
-179.16666666666785       44.73335378880455
-178.95833333333456       44.73293797745256
-178.7500000000012        44.73250345102148
-178.54166666666785       44.73210638400475
-178.3333333333345        44.731690603227236
-178.12500000000117       44.73125610868889
-177.91666666666782       44.730859070803184
-177.70833333333454       44.73044332046732
-177.50000000000117       44.730008857681256
-177.29166666666782       44.729611848799166
-177.08333333333448       44.72919612876896
-176.87500000000114       44.72876169759065
-176.6666666666678        44.72836471758159
-176.4583333333345        44.727949027718964
-176.25000000000114       44.72751462800274
-176.0416666666678        44.72711767673138
-175.83333333333445       44.726702016891885
-175.6250000000011        44.72626764848422
-175.41666666666777       44.725870725810495
-175.20833333333445       44.725455095848055
-175.0000000000011        44.72502075859689
-174.79166666666777       44.7246238643793
-174.58333333333442       44.72420826414141
-174.37500000000108       44.72377395788319
-174.16666666666774       44.7233770919764
-173.95833333333442       44.72296152131093
-173.75000000000108       44.722527245886766
-173.54166666666774       44.7221304081397
-173.3333333333344        44.72171486688604
-173.12500000000105       44.72128062212579
-172.9166666666677        44.72088381238715
-172.7083333333344        44.720468300384994
-172.50000000000105       44.72003408611929
-172.2916666666677        44.71963730423261
-172.08333333333437       44.71922182131621
-171.87500000000102       44.71878763737007
-171.66666666666768       44.71839088317444
-171.45833333333437       44.717975429174274
-171.25000000000102       44.71754127536954
-171.04166666666768       44.7171445487031
-170.83333333333434       44.71672912344779
-170.625000000001         44.716294999603605
-170.41666666666765       44.7158983002981
-170.20833333333434       44.71548290361134
-170.000000000001         44.71504880954332
-169.79166666666765       44.71465213743065
-169.5833333333343        44.714236769133116
-169.37500000000097       44.71380270465071
-169.16666666666762       44.713406059558125
-168.9583333333343        44.71299071946738
-168.75000000000097       44.71255668437848
-168.54166666666762       44.71216006612811
-168.33333333333428       44.71174475405786
-168.12500000000094       44.711310748167705
-167.9166666666676        44.71091415658335
-167.70833333333428       44.710498872345894
-167.50000000000094       44.710064895455304
-167.2916666666676        44.70966833035463
-167.08333333333425       44.70925307375712
-166.8750000000009        44.708819125662735
-166.66666666666757       44.70842258686004
-166.45833333333425       44.70800735770792
-166.2500000000009        44.707573438206374
-166.04166666666757       44.70717692551496
-165.83333333333422       44.706761723610285
-165.62500000000088       44.70632783249238
-165.41666666666754       44.705931345720884
-165.20833333333422       44.7055161708627
-165.00000000000088       44.70508230791782
-164.79166666666754       44.704685846872685
-164.5833333333342        44.70427069885787
-164.37500000000085       44.70383686387335
-164.1666666666675        44.70344042836055
-163.9583333333342        44.70302530698366
-163.75000000000085       44.70259149974267
-163.5416666666675        44.70219508956297
-163.33333333333417       44.70177999461362
-163.12500000000082       44.70134621489458
-162.91666666666748       44.70094982984742
-162.70833333333417       44.70053476111544
-162.50000000000082       44.70010100869863
-162.29166666666748       44.6997046485816
-162.08333333333414       44.699289605854084
-161.8750000000008        44.69885588051609
-161.66666666666745       44.69845954512307
-161.45833333333414       44.698044528182926
-161.2500000000008        44.69761082969564
-161.04166666666745       44.69721451882136
-160.8333333333341        44.69679952745151
-160.62500000000077       44.696365855586095
-160.41666666666742       44.695969569018644
-160.2083333333341        44.695554602997866
-160.00000000000074       44.69512095752369
-159.79166666666742       44.69472469505425
-159.58333333333408       44.69430975416178
-159.37500000000074       44.69387613484628
-159.1666666666674        44.69347989626182
-158.95833333333408       44.693064980273014
-158.7500000000007        44.69263138687983
-158.5416666666674        44.69223517196359
-158.33333333333405       44.691820280652934
-158.1250000000007        44.69138671294782
-157.91666666666737       44.69099052148282
-157.70833333333405       44.690575654622684
-157.50000000000068       44.690142112367404
-157.29166666666737       44.689745944137215
-157.08333333333402       44.6893311014979
-156.87500000000068       44.688897584449485
-156.66666666666734       44.68850143923478
-156.45833333333402       44.68808662058644
-156.25000000000065       44.687653128504465
-156.04166666666734       44.68725700608542
-155.833333333334         44.68684221119645
-155.62500000000065       44.686408743837596
-155.4166666666673        44.68601264399081
-155.20833333333397       44.68559787262866
-155.00000000000063       44.68516442975116
-154.7916666666673        44.684768352253194
-154.58333333333397       44.684353604181005
-154.37500000000063       44.68392018553463
-154.16666666666728       44.683524130162006
-153.95833333333394       44.68310940514734
-153.7500000000006        44.68267601049063
-153.54166666666728       44.68227997701671
-153.33333333333394       44.68186527482127
-153.1250000000006        44.68143190390435
-152.91666666666725       44.681035892102614
-152.7083333333339        44.6806212124898
-152.50000000000057       44.680187865065875
-152.29166666666725       44.679791874709586
-152.0833333333339        44.679377217441775
-151.87500000000057       44.67894389326245
-151.66666666666723       44.67854792412484
-151.45833333333388       44.67813328896321
-151.25000000000054       44.67769998777753
-151.04166666666723       44.677304039628645
-150.83333333333388       44.676889426332366
-150.62500000000054       44.67645614788871
-150.4166666666672        44.67606022050394
-150.20833333333385       44.67564562883629
-150.0000000000005        44.675212372885746
-149.7916666666672        44.674816466031785
-149.58333333333385       44.67440189574944
-149.3750000000005        44.67396866203871
-149.16666666666717       44.67357277549003
-148.95833333333383       44.67315822635591
-148.75000000000048       44.67272501463633
-148.54166666666717       44.67232914816035
-148.33333333333383       44.671914619932146
-148.12500000000048       44.671481429951704
-147.91666666666714       44.67108558331965
-147.7083333333338        44.67067107575771
-147.50000000000045       44.67023790726587
-147.2916666666671        44.669842080246575
-147.0833333333338        44.669427593108
-146.87500000000045       44.66899444585012
-146.6666666666671        44.668598638216004
-146.45833333333377       44.66818417126268
-146.25000000000043       44.667751044990084
-146.04166666666708       44.66735525651088
-145.83333333333377       44.66694080950225
-145.62500000000043       44.666507703964186
-145.41666666666708       44.66611193440969
-145.20833333333374       44.66569750710497
-145.0000000000004        44.66526442205003
-144.79166666666706       44.66486867118983
-144.58333333333374       44.6644542633481
-144.3750000000004        44.664021198524836
-144.16666666666706       44.66362546613322
-143.9583333333337        44.66321107751657
-143.75000000000037       44.66277803267488
-143.54166666666703       44.66238231852365
-143.3333333333337        44.661967948893555
-143.12500000000037       44.66153492378456
-142.91666666666703       44.661139227644206
-142.70833333333368       44.660724876762345
-142.50000000000034       44.66029187113896
-142.291666666667         44.659896192779996
-142.08333333333368       44.659481860407276
-141.87500000000034       44.65904887402073
-141.666666666667         44.65865321321987
-141.45833333333366       44.65823889912079
-141.2500000000003        44.65780593172347
-141.04166666666697       44.657410288251896
-140.83333333333366       44.65699599218832
-140.6250000000003        44.656563043532756
-140.41666666666697       44.65616741716847
-140.20833333333363       44.655753138907116
-140.00000000000028       44.65532020874867
-139.79166666666694       44.65492459926645
-139.58333333333363       44.654510338571775
-139.37500000000028       44.65407742666463
-139.16666666666694       44.65368183383967
-138.9583333333336        44.65326759047849
-138.75000000000026       44.652834696581074
-138.5416666666669        44.652439120192525
-138.3333333333336        44.65202489393231
-138.12500000000026       44.65159201780039
-137.9166666666669        44.65119645762473
-137.70833333333357       44.65078224823339
-137.50000000000023       44.65034938962639
-137.29166666666688       44.649953845443335
-137.08333333333357       44.64953965269023
-136.87500000000023       44.64910681136709
-136.66666666666688       44.64871128295889
-136.45833333333354       44.64829710661587
-136.2500000000002        44.64786428233802
-136.04166666666686       44.64746876948541
-135.83333333333354       44.647054609323796
-135.6250000000002        44.64662180185317
-135.41666666666686       44.64622630433905
-135.2083333333335        44.64581216013194
-135.00000000000017       44.64537936923185
-134.79166666666683       44.644983886840336
-134.58333333333348       44.64456975836287
-134.37500000000017       44.644136983799406
-134.16666666666683       44.643741516314684
-133.95833333333348       44.64332740334142
-133.75000000000014       44.64289464487956
-133.5416666666668        44.64249919208888
-133.33333333333346       44.642085094397075
-133.12500000000014       44.64165235180411
-132.9166666666668        44.641256913495084
-132.70833333333346       44.6408428308641
-132.5000000000001        44.64041010391118
-132.29166666666677       44.64001467987219
-132.08333333333343       44.639600612080734
-131.8750000000001        44.63916790053681
-131.66666666666677       44.63877249055906
-131.45833333333343       44.6383584373884
-131.25000000000009       44.63792574102478
-131.04166666666674       44.6375303448997
-130.8333333333334        44.637116306132896
-130.62500000000009       44.63668362472432
-130.41666666666674       44.636288242245236
-130.2083333333334        44.63587421766568
-130.00000000000006       44.63544155098568
-129.7916666666667        44.63504618194595
-129.58333333333337       44.63463217133891
-129.37500000000006       44.63419951916455
-129.1666666666667        44.63380416336226
-128.95833333333337       44.63339016651509
-128.75000000000003       44.63295752862302
-128.54166666666669       44.63256218585432
-128.33333333333334       44.63214820255635
-128.12500000000003       44.631715578729114
-127.91666666666669       44.63132024878996
-127.70833333333334       44.63090627882861
-127.5                    44.63047366884504
-127.29166666666666       44.63007835153799
-127.08333333333333       44.629664394705586
-126.87499999999999       44.62923179834777
-126.66666666666664       44.62883649347426
-126.45833333333331       44.6284225495631
-126.24999999999997       44.6279899666143
-126.04166666666663       44.62759467397726
-125.8333333333333        44.62718074278264
-125.62499999999996       44.62674817303041
-125.41666666666661       44.62635289243161
-125.20833333333331       44.62593897374701
-124.99999999999996       44.625506416976606
-124.79166666666663       44.625111148222565
-124.5833333333333        44.62469724184561
-124.37499999999996       44.62426469784573
-124.16666666666661       44.623869440743725
-123.9583333333333        44.623455546472776
-123.74999999999996       44.6230230150329
-123.54166666666661       44.6226277693897
-123.3333333333333        44.622213887023776
-123.12499999999996       44.62178136793508
-122.91666666666661       44.62138613356072
-122.70833333333331       44.62097226290119
-122.49999999999996       44.62053975595648
-122.29166666666663       44.620144532661655
-122.0833333333333        44.61973067351083
-121.87499999999996       44.619298178503975
-121.66666666666661       44.6189029660992
-121.4583333333333        44.618489118259895
-121.24999999999996       44.61805663498606
-121.04166666666663       44.61766143328385
-120.83333333333329       44.617247596559785
-120.62499999999996       44.616815124813876
-120.41666666666661       44.616419933632415
-120.20833333333329       44.61600610783136
-119.99999999999996       44.61557364741071
-119.79166666666661       44.61517846656039
-119.58333333333329       44.61476465148821
-119.37499999999996       44.61433220219416
-119.16666666666661       44.61393703149266
-118.9583333333333        44.613523226957895
-118.74999999999996       44.61309078858986
-118.54166666666663       44.61269562785513
-118.33333333333329       44.61228183366647
-118.12499999999996       44.61184940602387
-117.91666666666661       44.61145425507554
-117.70833333333329       44.61104047104351
-117.49999999999996       44.61060805392774
-117.29166666666663       44.61021291258123
-117.08333333333329       44.609799138516465
-116.87499999999996       44.609366731733445
-116.66666666666661       44.608971599811184
-116.45833333333329       44.608557835525865
-116.24999999999996       44.60812543887745
-116.04166666666661       44.60773031620023
-115.83333333333329       44.60731656150683
-115.62499999999994       44.60688417479723
-115.41666666666661       44.60648906118654
-115.2083333333333        44.60607531589955
-114.99999999999994       44.6056429389363
-114.79166666666663       44.60524783421293
-114.58333333333329       44.60483409814639
-114.37499999999994       44.60440173073666
-114.16666666666661       44.60400663472575
-113.95833333333329       44.60359290769415
-113.74999999999994       44.60316054964181
-113.54166666666663       44.60276546216446
-113.33333333333329       44.60235174398295
-113.12499999999994       44.60191939509726
-112.91666666666661       44.601524315980924
-112.70833333333329       44.6011106064665
-112.49999999999994       44.60067826655399
-112.29166666666661       44.60028319562286
-112.08333333333329       44.59986949459204
-111.87499999999994       44.59943716346154
-111.66666666666661       44.59904210053805
-111.4583333333333        44.59862840780699
-111.24999999999994       44.59819608526834
-111.04166666666663       44.59780103017992
-110.83333333333329       44.59738734556699
-110.62499999999994       44.59695503142952
-110.4166666666666        44.596559984000436
-110.20833333333329       44.596146307321966