% Model:              Japan_mu008_1E13_lsw0.mph
% Version:            COMSOL 5.5.0.359
% Date:               May 21 2024, 18:39
% Dimension:          1
% Nodes:              1725
% Expressions:        1
% Description:        Line graph
% X                       Height
-64.37788839788882        1623.1500000000003
-64.34111627304117        1623.1500000000003
-64.30434134596025        1623.1500000000003
-64.2675636166461         1623.1500000000003
-64.23078308509866        1623.1500000000003
-64.19400139827886        1623.1500000000003
-64.15721693492165        1623.1500000000003
-64.12042969502706        1623.1500000000003
-64.08363967859508        1623.1500000000003
-64.046848498566          1623.1500000000003
-64.01005456770463        1623.1500000000003
-63.97325788601097        1623.1500000000003
-63.93645845348502        1623.1500000000003
-63.89965784903123        1623.1500000000003
-63.86285451945943        1623.1500000000003
-63.826048464769656       1623.1500000000003
-63.7892396849619         1623.1500000000003
-63.75242972488912        1623.1500000000003
-63.71561706542173        1623.1500000000003
-63.678801706559746       1623.1500000000003
-63.641983648303146       1623.1500000000003
-63.60516440143748        1623.1500000000003
-63.568342480909656       1623.1500000000003
-63.531517886719676       1623.1500000000003
-63.49469061886754        1623.1500000000003
-63.457862154054986       1623.1500000000003
-63.421031041321676       1623.1500000000003
-63.38419728066761        1623.1500000000003
-63.34736087209275        1623.1500000000003
-63.31052325819843        1623.1500000000003
-63.27368302213366        1623.1500000000003
-63.23684016389842        1623.1500000000003
-63.19999468349273        1623.1500000000003
-63.16314798940037        1623.1500000000003
-63.12629869889664        1623.1500000000003
-63.08944681198155        1623.1500000000003
-63.052592328655095       1623.1500000000003
-63.01573662326625        1623.1500000000003
-62.9788783472339         1623.1500000000003
-62.94201750055805        1623.1500000000003
-62.905154083238685       1623.1500000000003
-62.86828943547216        1623.1500000000003
-62.83142224283867        1623.1500000000003
-62.794552505338245       1623.1500000000003
-62.757680222970855       1623.1500000000003
-62.720806701762115       1623.1500000000003
-62.68393066147156        1623.1500000000003
-62.64705210209918        1623.1500000000003
-62.61017102364499        1623.1500000000003
-62.573288697945436       1623.1500000000003
-62.53640387895773        1623.1500000000003
-62.499516566681855       1623.1500000000003
-62.46262676111783        1623.1500000000003
-62.425735699894176       1623.1500000000003
-62.388842171184486       1623.1500000000003
-62.351946174988775       1623.1500000000003
-62.31504771130701        1623.1500000000003
-62.27814798354063        1623.1500000000003
-62.241245814098725       1623.1500000000003
-62.2043412029813         1623.1500000000003
-62.16743415018835        1623.1500000000003
-62.13052582487466        1623.1500000000003
-62.093615083704265       1623.1500000000003
-62.05670192667717        1623.1500000000003
-62.01978635379335        1623.1500000000003
-61.982869499941124       1623.1500000000003
-61.94595025605926        1623.1500000000003
-61.909028622147744       1623.1500000000003
-61.872104598206576       1623.1500000000003
-61.83517928483733        1623.1500000000003
-61.798251607273656       1623.1500000000003
-61.761321565515566       1623.1500000000003
-61.72438915956305        1623.1500000000003
-61.68745545571037        1623.1500000000003
-61.65051941350657        1623.1500000000003
-61.61358103295165        1623.1500000000003
-61.57664031404562        1623.1500000000003
-61.539698288765436       1623.1500000000003
-61.50275395098546        1623.1500000000003
-61.4658073007057         1623.1500000000003
-61.428858337926115       1623.1500000000003
-61.39190806032033        1623.1500000000003
-61.35495549607405        1623.1500000000003
-61.31800064518726        1623.1500000000003
-61.281043507659966       1623.1500000000003
-61.24408504681019        1623.1500000000003
-61.20712432518707        1623.1500000000003
-61.17016134279059        1623.1500000000003
-61.133196099620775       1623.1500000000003
-61.09622952462356        1623.1500000000003
-61.059260714727934       1623.1500000000003
-61.02228966993393        1623.1500000000003
-60.98531639024153        1623.1500000000003
-60.94834177021227        1623.1500000000003
-60.9113649411673         1623.1500000000003
-60.87438590310663        1623.1500000000003
-60.83740465603026        1623.1500000000003
-60.8004220601026         1623.1500000000003
-60.763437281049576       1623.1500000000003
-60.7264503188712         1623.1500000000003
-60.68946117356746        1623.1500000000003
-60.65247067089265        1623.1500000000003
-60.615478010990394       1623.1500000000003
-60.5784831938607         1623.1500000000003
-60.54148621950355        1623.1500000000003
-60.50448787924973        1623.1500000000003
-60.46748740767391        1623.1500000000003
-60.43048480477608        1623.1500000000003
-60.39348007055626        1623.1500000000003
-60.3564739619079         1623.1500000000003
-60.3194657478504         1623.1500000000003
-60.28245542838379        1623.1500000000003
-60.24544300350806        1623.1500000000003
-60.208429195665275       1623.1500000000003
-60.171413308333605       1623.1500000000003
-60.134395341513056       1623.1500000000003
-60.09737529520362        1623.1500000000003
-60.060353857381536       1623.1500000000003
-60.02333036599809        1623.1500000000003
-59.98630482105329        1623.1500000000003
-59.94927722254715        1623.1500000000003
-59.91224822397525        1623.1500000000003
-59.87521719777674        1623.1500000000003
-59.838184143951636       1623.1500000000003
-59.80114906249992        1623.1500000000003
-59.764112572421375       1623.1500000000003
-59.727074080658134       1623.1500000000003
-59.690033587210166       1623.1500000000003
-59.65299109207751        1623.1500000000003
-59.61594717974856        1623.1500000000003
-59.5789012916839         1623.1500000000003
-59.54185342788351        1623.1500000000003
-59.50480358834739        1623.1500000000003
-59.467752323036706       1623.1500000000003
-59.43069910794629        1623.1500000000003
-59.39364394307613        1623.1500000000003
-59.35658682842621        1623.1500000000003
-59.31952827941422        1623.1500000000003
-59.282467806585394       1623.1500000000003
-59.245405409939735       1623.1500000000003
-59.20834108947723        1623.1500000000003
-59.17127532605548        1623.1500000000003
-59.13420766478665        1623.1500000000003
-59.097138105670744       1623.1500000000003
-59.06006664870775        1623.1500000000003
-59.02299374017824        1623.1500000000003
-58.98591895977818        1623.1500000000003
-58.9488423075076         1623.1500000000003
-58.911763783366474       1623.1500000000003
-58.874683799041016       1623.1500000000003
-58.83760196882826        1623.1500000000003
-58.80051829272822        1623.1500000000003
-58.7634327707409         1623.1500000000003
-58.72634577994169        1623.1500000000003
-58.68925696924507        1623.1500000000003
-58.65216633865106        1623.1500000000003
-58.61507388815963        1623.1500000000003
-58.57797996025625        1623.1500000000003
-58.540884238451916       1623.1500000000003
-58.503786722746625       1623.1500000000003
-58.466687413140384       1623.1500000000003
-58.429586617496255       1623.1500000000003
-58.39248405395411        1623.1500000000003
-58.35537972251394        1623.1500000000003
-58.318273623175735       1623.1500000000003
-58.281166029152565       1623.1500000000003
-58.24405669324073        1623.1500000000003
-58.20694561544023        1623.1500000000003
-58.16983279575106        1623.1500000000003
-58.13271847272723        1623.1500000000003
-58.09560243383043        1623.1500000000003
-58.05848467906067        1623.1500000000003
-58.02136520841795        1623.1500000000003
-57.98424422578779        1622.7879174287077
-57.947121553306644       1621.934803356102
-57.9099971909745         1621.0816504491247
-57.87287113879136        1620.2284587077756
-57.83574356596458        1619.3752320205995
-57.79861432931497        1618.5219670972033
-57.76148342884255        1617.668663937588
-57.724350864547304       1616.8153225417523
-57.687216770948275       1615.9619460010717
-57.650081039560725       1615.1085318224639
-57.612943670384645       1614.2550800059291
-57.575804663420044       1613.4015905514675
-57.538664118487226       1612.5480657530436
-57.50152196180624        1611.6945039151246
-57.464378193377065       1610.84090503771
-57.42723281319972        1609.9872691208006
-57.39008588638496        1609.1335976607024
-57.352937373868336       1608.279889759678
-57.31578727564985        1607.4261454177276
-57.27863559172954        1606.5723646348513
-57.241482352497435       1605.7185481094414
-57.20432755361569        1604.8646957418096
-57.16717119508432        1604.0108075319565
-57.13001327690333        1603.156883479882
-57.09285379473054        1602.302923485799
-57.05569277896621        1601.4489282483346
-57.01853022961033        1600.5948977674873
-56.9813661466629         1599.7408320432583
-56.94420049103762        1598.8867285803076
-56.90703332788462        1598.0325883213693
-56.86986465720388        1597.178413417868
-56.832694478995414       1596.3242038698033
-56.79552271941659        1595.469957980195
-56.758349478379536       1594.615678045128
-56.72117475588427        1593.7613640646032
-56.683998551930785       1592.9070160386195
-56.64682075790751        1592.0526314711701
-56.60964150850116        1591.1982134574966
-56.57246080371173        1590.3437619975984
-56.535278643539215       1589.4892770914757
-56.49809488459011        1588.6347554437962
-56.46090969633859        1587.780200949253
-56.42372307878467        1586.9256136078461
-56.38653503192833        1586.070993419576
-56.34934537758087        1585.2163362894798
-56.31215432001713        1584.3616469120068
-56.274961859237116       1583.506925287157
-56.23776799524082        1582.6521714149303
-56.20057251503067        1581.7973804004196
-56.16337565769576        1580.942557738143
-56.12617742323611        1580.0877034280998
-56.088977811651695       1579.2328174702902
-56.05177657512204        1578.3778941695407
-56.01457398756449        1577.5229398207575
-55.97737004897904        1576.6679544239414
-55.94016475936569        1575.812937979092
-55.90295783606663        1574.9578839904373
-55.86574958784179        1574.102799553603
-55.82854001469114        1573.2476846685888
-55.79132911661469        1572.3925311741068
-55.7541165761216         1571.5373390539164
-55.71690273681           1570.6821170852031
-55.67968759867986        1569.8268652679672
-55.64247116173121        1568.9715836022083
-55.60525307364925        1568.1162639912786
-55.568033712861144       1567.2609151319225
-55.5308130793669         1566.4055370241394
-55.493591173166514       1565.55012966793
-55.456367607076935       1564.6946841653282
-55.41914279439862        1563.839210014511
-55.38191673513152        1562.9837072154783
-55.344689429275675       1562.1281757682302
-55.307460454772816       1561.2726059733236
-55.27023025980357        1560.4170081305276
-55.232998844367934       1559.5613822398414
-55.19576620846591        1558.7057283012655
-55.15853189515791        1557.8500358137392
-55.12129638751075        1556.9943158787605
-55.08405968552446        1556.1385684963298
-55.04682178919902        1555.282793666447
-55.00958220670709        1554.4269800862858
-54.97234145600805        1553.5711396592203
-54.93509953710192        1552.715272385251
-54.89785644998869        1551.8593782643773
-54.860611667946486       1551.0034451918527
-54.82336574383396        1550.1474858730805
-54.78611867765113        1549.2915003080616
-54.74887046939799        1548.4354884967956
-54.71162055745096        1547.5794375324494
-54.674369529575074       1546.7233609226203
-54.63711738577032        1545.867258667308
-54.5998641260367         1545.011130766513
-54.56260915384146        1544.1549541225727
-54.52535309186337        1543.2987465565047
-54.48809594010246        1542.4425139453772
-54.450837698558715       1541.5862562891894
-54.413577735782326       1540.7299590761527
-54.37631670937366        1539.8736374190403
-54.33905461933272        1539.0172913178521
-54.301791465659505       1538.1609207725883
-54.26452658197892        1537.3045104688174
-54.22726066082106        1536.448076322057
-54.189993702185916       1535.5916183323072
-54.15272570607349        1534.7351364995677
-54.11545597117483        1533.878614706568
-54.07818522495825        1533.0220696717652
-54.040913467423756       1532.1655013951593
-54.00364069857136        1531.3089098767512
-53.96636618214928        1530.4522781962241
-53.929090680572955       1529.5956238751794
-53.89181419384238        1528.7389469136176
-53.854536721957565       1527.8822473115383
-53.81725749371463        1527.0255073453673
-53.779977306485335       1526.1687453400612
-53.74269616026967        1525.3119612956198
-53.70541405506764        1524.4551552120438
-53.668130184713654       1523.5983085622784
-53.63084538154532        1522.7414404748552
-53.59355964556266        1521.8845509497746
-53.556272976765655       1521.0276399870368
-53.51898453401699        1520.1706882558774
-53.48169518463007        1519.3137156886316
-53.444404928604925       1518.4567222852997
-53.407113765941546       1517.599708045882
-53.369820820520474       1516.7426528356652
-53.332526994641285       1515.8855773910257
-53.29523228830397        1515.0284817119637
-53.25793670150854        1514.1713657984787
-53.22063932314265        1513.314194154073
-53.18334109050268        1512.4569951240755
-53.14604200358862        1511.5997764608983
-53.10874206240048        1510.7425381645412
-53.07144032082194        1509.8852584910783
-53.03413775115724        1509.027959786294
-52.99683435340636        1508.1706420501882
-52.959530127569316       1507.3133052827607
-52.92222409251893        1506.4559269354563
-52.88491725557405        1505.5985301587752
-52.84760961673468        1504.7411149527172
-52.81030117600082        1503.8836813172827
-52.772990917263584       1503.026205899956
-52.73567988282724        1502.168712655283
-52.69836807269181        1501.3112015832635
-52.66105548685726        1500.4536726838971
-52.62374107419541        1499.5961017998447
-52.58642591203348        1498.7385136905593
-52.54911000037147        1497.8809083560413
-52.511793339209376       1497.0232857962903
-52.47447484238627        1496.1656210488343
-52.437155622265664       1495.3079396783407
-52.39983567884758        1494.4502416848104
-52.362515012132          1493.5925270682428
-52.325192500922434       1492.734770060968
-52.28786929262147        1491.8769970329326
-52.25054538722909        1491.0192079841354
-52.213220784745296       1490.161402914577
-52.175894328934966       1489.3035552513188
-52.13856720224272        1488.445692169654
-52.10123940466855        1487.5878136695824
-52.06391093621246        1486.7299197511034
-52.026580605597225       1485.8719830359314
-51.9892496303129         1485.0140315047834
-51.95191801035947        1484.1560651576592
-51.91458574573696        1483.2980839945592
-51.87725161012215        1482.44005983176
-51.83991685605436        1481.5820114389385
-51.80258148353357        1480.7239297604535
-51.7652454925598         1479.8658338680166
-51.727907621759684       1479.0076947713897
-51.69056915872588        1478.149542063411
-51.6532301034584         1477.291375744081
-51.61589045595723        1476.4331958133998
-51.57854891979428        1475.5749724754626
-51.541206817620065       1474.7167361288457
-51.503864149434605       1473.8584867735499
-51.46652091523787        1473.0002244095745
-51.42917578354214        1472.1419184352364
-51.3918301120606         1471.2836000549607
-51.3544839007933         1470.425269268748
-51.3171371497402         1469.5669260765976
-51.27978849234866        1468.7085390709271
-51.24243932139978        1467.85014026213
-51.20508963689356        1466.9917296502058
-51.16773943883           1466.1333072351547
-51.13038732558585        1465.2748408033635
-51.093034725015734       1464.416363171323
-51.055681637119626       1463.5578743390327
-51.018328061897535       1462.6993743064925
-50.9809725626497         1461.8408300539236
-50.94361660231004        1460.9822752040468
-50.90626018087857        1460.1237097568624
-50.868903298355285       1459.2651337123696
-50.83154448295753        1458.4065132444775
-50.79418523270489        1457.5478827822828
-50.75682554759738        1456.689242325786
-50.719465427634994       1455.8305918749868
-50.68210336594543        1454.9718967973254
-50.644740895640616       1454.1131923284292
-50.60737801672054        1453.2544784682975
-50.57001472918521        1452.3957552169309
-50.53264949106562        1451.5369871351388
-50.495283870573004       1450.6782102652392
-50.457917867707344       1449.81942234994
-50.42055148246865        1448.9605925276041
-50.38318313778385        1448.1017176693158
-50.345814436970755       1447.2428346257668
-50.308445380029355       1446.383943396957
-50.271075966959664       1445.525043982887
-50.23370458557671        1444.6660993290611
-50.19633287431268        1443.8071470932414
-50.158960833167576       1442.9481872754282
-50.12158846214141        1442.089219875621
-50.08421411392911        1441.230207032124
-50.046839462085345       1440.3711872099552
-50.009464506610115       1439.5121604091137
-49.97208924750342        1438.6531266296001
-49.93466635121439        1437.7929979560372
-49.89724345492535        1436.9328692824743
-49.85982055863632        1436.072740608911
-49.82239766234729        1435.2126119353481
-49.784974766058255       1434.352483261785
-49.74755186976922        1433.492354588222
-49.71012897348018        1432.6322259146589
-49.672706077191144       1431.7720972410957
-49.63528318090211        1430.9119685675328
-49.59786028461307        1430.0518398939694
-49.560437388324026       1429.1917112204062
-49.523014492034996       1428.3315825468433
-49.48559159574595        1427.47145387328
-49.44816869945692        1426.611325199717
-49.41074580316789        1425.751196526154
-49.37332290687885        1424.8910678525906
-49.33590001058982        1424.0309391790279
-49.29847711430077        1423.1708105054645
-49.261054218011736       1422.3106818319013
-49.2236313217227         1421.4505531583382
-49.18620842543367        1420.5904244847754
-49.148785529144625       1419.7302958112123
-49.11136263285559        1418.8701671376489
-49.07393973656655        1418.010038464086
-49.03651684027751        1417.1498750587734
-48.99909394398848        1416.2897048782966
-48.96167104769943        1415.4295346978192
-48.9242481514104         1414.5693645173424
-48.886825255121366       1413.709194336865
-48.849402358832336       1412.8490241563882
-48.81197946254329        1411.9888539759113
-48.77455656625426        1411.1286837954342
-48.73713366996522        1410.2685136149569
-48.69971077367618        1409.4083434344798
-48.66228787738715        1408.548173254003
-48.624864981098106       1407.6880030735258
-48.58744208480907        1406.8278328930487
-48.55001918852003        1405.9676627125716
-48.51259629223099        1405.1074925320943
-48.47517339594195        1404.2473223516172
-48.437750499652914       1403.38715217114
-48.400327603363884       1402.5269819906632
-48.36290470707485        1401.6668118101861
-48.32548181078581        1400.806641629709
-48.28805891449677        1399.9464714492321
-48.250636018207736       1399.086301268755
-48.21321312191869        1398.2261310882777
-48.17579022562966        1397.3659609078009
-48.13836732934062        1396.5057907273238
-48.10094443305159        1395.645620546847
-48.06352153676256        1394.78545036637
-48.02609864047351        1393.925280185893
-47.988675744184484       1393.065110005416
-47.95125284789544        1392.2049398249387
-47.9138299516064         1391.3447696444616
-47.876407055317365       1390.4845994639845
-47.838984159028335       1389.6244292835077
-47.80156126273929        1388.7642591030303
-47.764138366450254       1387.9040889225532
-47.72671547016122        1387.0439187420764
-47.68929257387217        1386.183748561599
-47.65186967758314        1385.3235486574322
-47.6144467812941         1384.4633311240877
-47.57702388500507        1383.6031135907435
-47.53960098871603        1382.7428960573993
-47.502178092427          1381.8826785240549
-47.46475519613796        1381.0224609907107
-47.42733229984893        1380.1622434573662
-47.389909403559884       1379.3020259240218
-47.35248650727085        1378.4418083906776
-47.315063610981824       1377.5815908573336
-47.27764071469278        1376.721373323989
-47.24021781840375        1375.8611557906447
-47.2027949221147         1375.0009382573
-47.16537202582567        1374.1407207239558
-47.127949129536624       1373.2805031906114
-47.09052623324759        1372.420285657267
-47.05310333695855        1371.5600681239225
-47.01568044066951        1370.6998505905783
-46.978257544380476       1369.839633057234
-46.94083464809144        1368.9794155238897
-46.9034117518024         1368.1191979905452
-46.86598885551336        1367.2589804572008
-46.82856595922433        1366.3987629238568
-46.791143062935284       1365.5385453905124
-46.753720166646254       1364.678327857168
-46.716297270357224       1363.8181103238237
-46.67887437406818        1362.9578927904795
-46.64145147777915        1362.097675257135
-46.604028581490105       1361.2374577237906
-46.56660568520107        1360.3772401904462
-46.52918278891203        1359.517022657102
-46.491759892623          1358.6568051237577
-46.45433699633396        1357.7965875904133
-46.41691410004492        1356.9363700570689
-46.37949120375588        1356.0761525237247
-46.34206830746684        1355.21593499038
-46.304645411177816       1354.355717457036
-46.26722251488878        1353.4954777630214
-46.22979961859974        1352.6352072950529
-46.192376722310705       1351.774936827084
-46.15495382602167        1350.9146663591155
-46.117530929732624       1350.0543958911467
-46.080108033443594       1349.194125423178
-46.04268513715455        1348.3338549552093
-46.00526224086552        1347.473584487241
-45.96783934457648        1346.6133140192721
-45.93041644828744        1345.7530435513033
-45.89299355199841        1344.8927730833348
-45.855570655709364       1344.032502615366
-45.81814775942033        1343.1722321473974
-45.78072486313129        1342.3119616794288
-45.74330196684225        1341.45169121146
-45.705879070553216       1340.5914207434914
-45.668456174264186       1339.731150275523
-45.63103327797514        1338.870879807554
-45.593610381686105       1338.0106093395855
-45.55618748539707        1337.150338871617
-45.518764589108024       1336.2900684036479
-45.481341692818994       1335.4297979356795
-45.44391879652995        1334.5695274677105
-45.40649590024092        1333.7092569997421
-45.36907300395189        1332.8489865317736
-45.33165010766285        1331.988716063805
-45.294227211373816       1331.1284455958364
-45.25680431508478        1330.2681751278676
-45.21938141879575        1329.4079046598993
-45.181958522506704       1328.5476341919302
-45.14453562621767        1327.6873637239617
-45.10711272992863        1326.827093255993
-45.069689833639586       1325.9668227880243
-45.03226693735055        1325.1065523200555
-44.99484404106151        1324.246281852087
-44.95742114477248        1323.3860113841183
-44.919998248483445       1322.5257409161497
-44.88257535219441        1321.6654582463132
-44.845152455905364       1320.8051295572895
-44.807729559616334       1319.9448008682664
-44.77030666332729        1319.0844721792428
-44.73288376703825        1318.2241434902196
-44.695460870749216       1317.3638148011962
-44.658037974460186       1316.5034861121733
-44.62061507817115        1315.64315742315
-44.583192181882104       1314.7828287341263
-44.545769285593074       1313.922500045103
-44.50834638930403        1313.0621713560795
-44.47092349301499        1312.2018426670563
-44.433500596725956       1311.341513978033
-44.39607770043692        1310.4811852890095
-44.35865480414788        1309.6208565999864
-44.32123190785885        1308.760527910963
-44.28380901156981        1307.9001992219396
-44.24638611528077        1307.039870532916
-44.208963218991734       1306.179541843893
-44.1715403227027         1305.3192131548694
-44.13411742641367        1304.4588844658463
-44.09669453012463        1303.598555776823
-44.05927163383559        1302.7382270877997
-44.021848737546556       1301.8778983987763
-43.98442584125752        1301.017569709753
-43.94700294496848        1300.1572410207298
-43.90958004867944        1299.2969123317064
-43.8721571523904         1298.4365836426828
-43.83473425610136        1297.5762549536596
-43.79731135981233        1296.7159262646364
-43.75988846352329        1295.855597575613
-43.72246556723425        1294.9952688865897
-43.685042670945215       1294.1349401975663
-43.647619774656185       1293.2746115085433
-43.61019687836714        1292.4142828195197
-43.5727739820781         1291.553954130496
-43.53535108578907        1290.6936254414732
-43.49792818950002        1289.8332967199553
-43.460505293210986       1288.9729048482081
-43.42308239692195        1288.112512976461
-43.38565950063291        1287.2521211047138
-43.348236604343874       1286.3917292329666
-43.31081370805484        1285.5313373612194
-43.2733908117658         1284.6709454894722
-43.23596791547676        1283.8105536177247
-43.19854501918773        1282.9501617459778
-43.161122122898696       1282.0897698742306
-43.12369922660966        1281.2293780024834
-43.08627633032062        1280.3689861307362
-43.048853434031585       1279.508594258989
-43.01143053774255        1278.6482023872418
-42.97400764145351        1277.7878105154944
-42.93658474516447        1276.927418643747
-42.89916184887543        1276.0670267719997
-42.86173895258639        1275.2066349002525
-42.82431605629735        1274.3462430285053
-42.78689316000832        1273.4858511567581
-42.74947026371928        1272.625459285011
-42.71204736743025        1271.765067413264
-42.674624471141215       1270.9046755415168
-42.63720157485218        1270.0442836697694
-42.59977867856314        1269.1838917980224
-42.562355782274096       1268.323499926275
-42.524932885985066       1267.463108054528
-42.48750998969603        1266.6027161827808
-42.45008709340699        1265.7423243110334
-42.41266419711795        1264.8819324392862
-42.37524130082892        1264.0215405675392
-42.337818404539874       1263.1611486957918
-42.300395508250844       1262.3007568240446
-42.2629726119618         1261.4403649522974
-42.225549715672756       1260.57997308055
-42.188126819383726       1259.719581208803
-42.15070392309468        1258.8591893370556
-42.11328102680565        1257.9987974653086
-42.075858130516615       1257.1383519395388
-42.03843523422758        1256.2778922757625
-42.00101233793854        1255.417432611986
-41.9635894416495         1254.5569729482097
-41.926166545360466       1253.6965132844334
-41.88874364907143        1252.836053620657
-41.8513207527824         1251.9755939568806
-41.813897856493355       1251.1151342931043
-41.77647496020432        1250.2546746293278
-41.73905206391528        1249.3942149655516
-41.701629167626244       1248.5337553017753
-41.6642062713372         1247.6732956379988
-41.62678337504817        1246.8128359742225
-41.589360478759126       1245.9523763104457
-41.55193758247008        1245.0919166466692
-41.51451468618105        1244.2314569828932
-41.477091789892015       1243.3709973191167
-41.439668893602985       1242.5105376553408
-41.40224599731395        1241.650077991564
-41.36482310102492        1240.789618327788
-41.32740020473588        1239.9291586640118
-41.28997730844684        1239.0686990002353
-41.25255441215781        1238.208239336459
-41.21513151586876        1237.3477796726825
-41.177708619579725       1236.4873200089062
-41.14028572329069        1235.6268603451297
-41.10286282700165        1234.7664006813534
-41.065439930712614       1233.905941017577
-41.02801703442358        1233.0454813538006
-40.99059413813453        1232.185021690024
-40.9531712418455         1231.3245620262478
-40.915748345556466       1230.4641023624713
-40.87832544926742        1229.6036426986948
-40.84090255297839        1228.7431830349187
-40.80347965668935        1227.8827233711422
-40.76605676040032        1227.0222637073657
-40.72863386411128        1226.1618040435894
-40.691210967822244       1225.3013024343982
-40.65378807153321        1224.440770747271
-40.61636517524417        1223.5802390601439
-40.578942278955125       1222.7197073730165
-40.54151938266609        1221.8591756858893
-40.50409648637705        1220.9986439987624
-40.466673590088014       1220.138112311635
-40.429250693798984       1219.2775806245081
-40.39182779750994        1218.4170489373807
-40.35440490122091        1217.5565172502538
-40.316982004931866       1216.6959855631267
-40.27955910864283        1215.8354538759995
-40.24213621235379        1214.9749221888724
-40.20471331606475        1214.1143905017448
-40.16729041977572        1213.253858814618
-40.12986752348668        1212.393327127491
-40.092444627197644       1211.5327954403638
-40.05502173090861        1210.6722637532366
-40.01759883461957        1209.8117320661092
-39.980175938330525       1208.951200378982
-39.942753042041495       1208.0906686918552
-39.90533014575245        1207.230137004728
-39.867907249463414       1206.3696053176009
-39.830484353174384       1205.5090736304737
-39.79306145688535        1204.6485419433466
-39.75563856059632        1203.7880102562196
-39.71821566430727        1202.9274785690923