% Model:              Constant_T_Japan_mu0025_1E20.mph
% Version:            COMSOL 5.5.0.359
% Date:               May 19 2026, 01:17
% Dimension:          1
% Nodes:              3051
% Expressions:        1
% Description:        Line graph
% X                       Height
-249.99999999999997       49.54268745670298
-249.9114801948843        49.542687456703035
-249.82296038976864       49.542687456703106
-249.734440584653         49.43203608364102
-249.63615455212195       49.321384710579075
-249.5378685195909        49.321384710579075
-249.43958248705982       49.33155210113117
-249.33972936112275       49.34171949168327
-249.2398762351856        49.34171949168327
-249.1400231092485        49.39725188890356
-249.04014929034963       49.45278428612385
-248.94027547145072       49.45278428612385
-248.84040165255178       49.46885362404858
-248.7405276062474        49.484922961973304
-248.64065355994296       49.484922961973304
-248.54077951363857       49.49776098055371
-248.44090523996542       49.51059899913412
-248.34103096629227       49.51059899913412
-248.2411566926191        49.493321224680564
-248.1412821915602        49.47604345022701
-248.04140769050125       49.47604345022701
-247.9415331894423        49.41859985669266
-247.84165846092029       49.36115626315831
-247.74178373239818       49.36115626315831
-247.64190900387612       49.420530807754155
-247.54203404795746       49.47990535235
-247.44215909203876       49.47990535235
-247.3422841361201        49.491021487371114
-247.24240895290015       49.50213762239223
-247.1425337696802        49.50213762239223
-247.04265858646025       49.520516592361886
-246.9427831757763        49.53889556233154
-246.84290776509232       49.53889556233154
-246.74303235440837       49.47615500870208
-246.64315671626338       49.41341445507261
-246.54328107811838       49.41341445507261
-246.44340543997336       49.41834016386832
-246.34352957450304       49.42326587266403
-246.24365370903269       49.42326587266403
-246.14377784356236       49.42861975075094
-246.0439017506431        49.43397362883785
-245.94402565772378       49.43397362883785
-245.84414956480452       49.438836492552994
-245.7442732444843        49.443699356268134
-245.64439692416408       49.443699356268134
-245.5445206038439        49.44814092133822
-245.44464405613905       49.45258248640832
-245.3447675084342        49.45258248640832
-245.2448909607294        49.45667988470768
-245.1450141855696        49.46077728300705
-245.0451374104098        49.46077728300705
-244.94526063525004       49.464582768375365
-244.84538363268553       49.468388253743676
-244.745506630121         49.468388253743676
-244.64562962755647       49.471947466147824
-244.54575239759038       49.47550667855198
-244.44587516762425       49.47550667855198
-244.3459979376581        49.47881980549348
-244.2461204803059        49.48213293243498
-244.14624302295363       49.48213293243498
-244.04636556560143       49.48526604852582
-243.94648788085408       49.488399164616666
-243.84661019610672       49.488399164616666
-243.74673251135943       49.49135929288188
-243.6468545991608        49.49431942114709
-243.54697668696218       49.49431942114709
-243.4470987747636        49.497094171304255
-243.34722063515323       49.49986892146142
-243.2473424955429        49.49986892146142
-243.14746435593253       49.502516358621435
-243.04758598893625       49.50516379578144
-242.9477076219399        49.50516379578144
-242.84782925494363       49.50767600869858
-242.74795066055123       49.510188221615714
-242.64807206615882       49.510188221615714
-242.5481934717664        49.51259031014772
-242.44831464997654       49.51499239867973
-242.34843582818664       49.51499239867973
-242.2485570063967        49.51723717558891
-242.14867795713914       49.51948195249809
-242.0487989078815        49.51948195249809
-241.9489198586239        49.52166130065266
-241.84904058196977       49.52384064880723
-241.74916130531562       49.52384064880723
-241.64928202866153       49.52592425192565
-241.54940252461          49.52800785504407
-241.44952302055847       49.52800785504407
-241.34964351650697       49.5300019097009
-241.24976378505312       49.53199596435773
-241.1498840535992        49.53199596435773
-241.05000432214533       49.53390745589974
-240.95012436322637       49.53581894744173
-240.85024440430735       49.53581894744173
-240.75036444538839       49.53765277458764
-240.65048425905775       49.53948660173354
-240.55060407272708       49.53948660173354
-240.45072388639642       49.54125531020583
-240.35084347275222       49.54302401867811
-240.25096305910802       49.54302401867811
-240.1510826454638        49.54469329455627
-240.05120200427572       49.54636257043442
-239.95132136308763       49.54636257043442
-239.85144072189956       49.54810230404509
-239.7515598533047        49.54984203765576
-239.65167898470983       49.54984203765576
-239.55179811611495       49.55137839114872
-239.4519170201123        49.55291474464168
-239.3520359241096        49.55291474464168
-239.25215482810694       49.55443263438194
-239.15227350470653       49.555950524122196
-239.05239218130612       49.555950524122196
-238.9525108579057        49.55724731057535
-238.85262930703192       49.5585440970285
-238.75274775615813       49.5585440970285
-238.65286620528428       49.561378407134654
-238.55298442701053       49.56421271724081
-238.4531026487367        49.56421271724081
-238.3532208704629        49.58042729860428
-238.25333886478015       49.596641879967756
-238.1534568590974        49.596641879967756
-238.0535748534146        49.62044290933997
-237.95369262032477       49.64424393871219
-237.85381038723486       49.64424393871219
-237.75392815414497       49.6103111313771
-237.65404569364796       49.57637832404202
-237.55416323315092       49.57637832404202
-237.4542807726539        49.61024273357826
-237.35439808470488       49.6441071431145
-237.25451539675583       49.6441071431145
-237.15463270880682       49.675034647691604
-237.0547258793827        49.70596215226871
-236.95481904995856       49.70596215226871
-236.85491222053437       49.705570335258294
-236.7549640630094        49.70517851824788
-236.6550159054844        49.70517851824788
-236.55506774795936       49.761800782357064
-236.45511886965525       49.81842304646625
-236.3551699913511        49.81842304646625
-236.25522111304699       49.71817722535812
-236.15527223474288       49.61793140424998
-236.05532335643872       49.61793140424998
-235.95537447813462       49.63395431466178
-235.8554255998305        49.649977225073584
-235.75547672152638       49.649977225073584
-235.65552784322227       49.737219594355025
-235.55557896491817       49.82446196363647
-235.455630086614         49.82446196363647
-235.35568120830987       49.72121727859332
-235.25573233000577       49.61797259355017
-235.15578345170164       49.61797259355017
-235.05583457339748       49.60675583003371
-234.95588569509337       49.595539066517254
-234.85593681678927       49.595539066517254
-234.75598793848513       49.594650593160324
-234.65603906018103       49.59376211980339
-234.5560901818769        49.59376211980339
-234.4561413035728        49.59410884165045
-234.35619242526866       49.594455563497526
-234.2562435469645        49.594455563497526
-234.15629466866037       49.59514976019938
-234.05634579035626       49.595843956901234
-233.95639691205213       49.595843956901234
-233.856448033748         49.59662271594765
-233.7564991554439        49.59740147499407
-233.65655027713976       49.59740147499407
-233.55660139883562       49.598230684669154
-233.4566525205315        49.59905989434424
-233.3567036422274        49.59905989434424
-233.25675476392328       49.59989070743535
-233.15680588561918       49.60072152052646
-233.05685700731505       49.60072152052646
-232.9569081290109        49.601542474855364
-232.8569592507068        49.602363429184265
-232.75701037240268       49.602363429184265
-232.6570614940985        49.60317046217738
-232.5571126157944        49.6039774951705
-232.45716373749025       49.6039774951705
-232.35721485918614       49.604769159479474
-232.25726598088204       49.605560823788444
-232.15731710257788       49.605560823788444
-232.0573682242738        49.60633682014906
-231.95741934596967       49.60711281650968
-231.8574704676655        49.60711281650968
-231.75752158936137       49.60787326537235
-231.65757271105727       49.608633714235026
-231.55762383275317       49.608633714235026
-231.45767495444903       49.609378245792946
-231.35772607614493       49.61012277735087
-231.2577771978408        49.61012277735087
-231.15782831953666       49.61085695088622
-231.05787944123253       49.61159112442158
-230.95793056292845       49.61159112442158
-230.85798168462432       49.612296161035985
-230.7580328063202        49.613001197650384
-230.65808392801605       49.613001197650384
-230.55813504971192       49.61368752754164
-230.45818617140782       49.6143738574329
-230.35823729310366       49.6143738574329
-230.25828841479952       49.61506646815111
-230.15833953649542       49.615759078869324
-230.05839065819129       49.615759078869324
-229.95844177988715       49.61643654732997
-229.85849290158308       49.617114015790605
-229.75854402327894       49.617114015790605
-229.65859514497484       49.61777677362987
-229.5586462666707        49.61843953146914
-229.45869738836655       49.61843953146914
-229.3587485100624        49.61908846496715
-229.2587996317583        49.619737398465155
-229.15885075345415       49.619737398465155
-229.05890187515004       49.620374933923834
-228.95895299684594       49.621012469382514
-228.8590041185418        49.621012469382514
-228.75905524023767       49.621622840087255
-228.65910636193357       49.62223321079199
-228.55915748362943       49.62223321079199
-228.45920860532533       49.62298013212421
-228.35925972702123       49.62372705345643
-228.25931084871706       49.62372705345643
-228.15936197041296       49.62393197893819
-228.05941309210885       49.62413690441994
-227.9594642138047        49.62413690441994
-227.85951533550056       49.62479432780293
-227.75956645719646       49.62545175118593
-227.65961757889232       49.62545175118593
-227.5596687005882        49.62608894530851
-227.45971982228411       49.6267261394311
-227.35977094397998       49.6267261394311
-227.25982206567582       49.627330813225754
-227.15987318737172       49.627935487020416
-227.05992430906755       49.627935487020416
-226.95997543076342       49.62851706364192
-226.86002655245935       49.62909864026342
-226.76007767415518       49.62909864026342
-226.66012879585108       49.62966325088827
-226.56017991754698       49.63022786151313
-226.46023103924284       49.63022786151313
-226.3602821609387        49.63077887067645
-226.26033328263463       49.63132987983977
-226.16038440433047       49.63132987983977
-226.06043552602634       49.63186915973557
-225.96048664772223       49.63240843963138
-225.8605377694181        49.63240843963138
-225.76058889111397       49.63293710003218
-225.66064001280984       49.63346576043299
-225.56069113450567       49.63346576043299
-225.46074225620157       49.63398456197367
-225.36079337789747       49.63450336351435
-225.2608444995933        49.63450336351435
-225.1608956212892        49.635012882736774
-225.06094674298512       49.63552240195921
-224.960997864681         49.63552240195921
-224.86104898637686       49.636023056436464
-224.76110010807275       49.63652371091372
-224.6611512297686        49.63652371091372
-224.56120235146446       49.63701584772297
-224.46125347316035       49.63750798453222
-224.36130459485622       49.63750798453222
-224.2613557165521        49.6379919438005
-224.16140683824796       49.63847590306877
-224.06145795994385       49.63847590306877
-223.96150908163972       49.63895199742082
-223.8615602033356        49.63942809177287
-223.76161132503148       49.63942809177287
-223.66166244672735       49.63989656376904
-223.56171356842324       49.64036503576522
-223.4617646901191        49.64036503576522
-223.361815811815         49.64082606994907
-223.26186693351087       49.64128710413293
-223.1619180552067        49.64128710413293
-223.0619691769026        49.64174089146674
-222.9620202985985        49.64219467880055
-222.86207142029434       49.64219467880055
-222.76212254199027       49.64264141343354
-222.66217366368616       49.643088148066525
-222.562224785382         49.643088148066525
-222.46227590707787       49.643528018630334
-222.36232702877373       49.64396788919415
-222.2623781504696        49.64396788919415
-222.16242927216547       49.644401086375765
-222.06248039386136       49.64483428355737
-221.96253151555723       49.64483428355737
-221.8625826372531        49.64526101550827
-221.762633758949         49.64568774745917
-221.6626848806449        49.64568774745917
-221.56273600234078       49.64610822918448
-221.46278712403665       49.64652871090979
-221.36283824573252       49.64652871090979
-221.2628893674284        49.646943132602544
-221.16294048912428       49.647357554295304
-221.06299161082015       49.647357554295304
-220.96304273251602       49.64776606335883
-220.8630938542119        49.64817457242236
-220.76314497590775       49.64817457242236
-220.66319609760362       49.648577299257894
-220.5632472192995        49.64898002609343
-220.46329834099538       49.64898002609343
-220.36334946269127       49.64937708697609
-220.26340058438714       49.649774147858736
-220.16345170608304       49.649774147858736
-220.0635028277789        49.6501656261935
-219.96355394947477       49.650557104528254
-219.86360507117064       49.650557104528254
-219.7636561928665        49.65094311306147
-219.6637073145624        49.6513291215947
-219.56375843625827       49.6513291215947
-219.46380955795414       49.65170984094772
-219.36386067965003       49.652090560300735
-219.26391180134587       49.652090560300735
-219.1639629230418        49.652466152627326
-219.06401404473766       49.652841744953925
-218.96406516643353       49.652841744953925
-218.8641162881294        49.65321234275157
-218.76416740982526       49.65358294054923
-218.66421853152116       49.65358294054923
-218.56426965321702       49.653948641486714
-218.46432077491292       49.6543143424242
-218.3643718966088        49.6543143424242
-218.26442301830465       49.654675240013304
-218.16447414000055       49.6550361376024
-218.06452526169645       49.6550361376024
-217.9645763833923        49.65539238951728
-217.86462750508818       49.65574864143216
-217.76467862678402       49.65574864143216
-217.6647297484799        49.656100422724485
-217.56478087017578       49.65645220401681
-217.46483199187165       49.65645220401681
-217.36488311356752       49.65679961791048
-217.26493423526338       49.65714703180414
-217.16498535695928       49.65714703180414
-217.06503647865514       49.65749011875215
-216.96508760035104       49.65783320570016
-216.86513872204694       49.65783320570016
-216.76518984374283       49.65817203731904
-216.6652409654387        49.658510868937924
-216.56529208713457       49.658510868937924
-216.46534320883043       49.658845568354934
-216.3653943305263        49.659180267771944
-216.2654454522222        49.659180267771944
-216.16549657391806       49.65951094738483
-216.06554769561393       49.65984162699772
-215.9655988173098        49.65984162699772
-215.86564993900566       49.660168371794214
-215.7657010607016        49.6604951165907
-215.66575218239745       49.6604951165907
-215.56580330409332       49.66081798553576
-215.46585442578922       49.66114085448081
-215.36590554748506       49.66114085448081
-215.26595666918095       49.6614598817314
-215.16600779087682       49.661778908981994
-215.0660589125727        49.661778908981994
-214.96611003426855       49.66209414406747
-214.86616115596442       49.66240937915295
-214.76621227766032       49.66240937915295
-214.66626339935618       49.66272089433916
-214.56631452105208       49.66303240952537
-214.46636564274795       49.66303240952537
-214.3664167644438        49.66334027584257
-214.2664678861397        49.66364814215978
-214.16651900783557       49.66364814215978
-214.06657012953144       49.66395243368642
-213.96662125122734       49.66425672521306
-213.86667237292318       49.66425672521306
-213.76672349461907       49.66455750827039
-213.66677461631497       49.66485829132772
-213.5668257380108        49.66485829132772
-213.4668768597067        49.6651556201635
-213.36692798140263       49.66545294899929
-213.26697910309846       49.66545294899929
-213.16703022479433       49.66574689555746
-213.06708134649023       49.666040842115635
-212.9671324681861        49.666040842115635
-212.86718358988196       49.66633149191492
-212.76723471157786       49.66662214171421
-212.66728583327372       49.66662214171421
-212.56733695496956       49.66690955498275
-212.46738807666546       49.667196968251304
-212.3674391983613        49.667196968251304
-212.2674903200572        49.66748118606708
-212.16754144175312       49.66776540388286
-212.06759256344895       49.66776540388286
-211.96764368514485       49.66804648010151
-211.86769480684075       49.66832755632016
-211.7677459285366        49.66832755632016
-211.66779705023248       49.668605558374864
-211.56784817192838       49.66888356042956
-211.4678992936242        49.66888356042956
-211.3679504153201        49.66915856881482
-211.26800153701598       49.669433577200074
-211.16805265871184       49.669433577200074
-211.0681037804077        49.66970565994131
-210.9681549021036        49.66997774268254
-210.86820602379944       49.66997774268254
-210.76825714549534       49.67024694599055
-210.66830826719124       49.67051614929856
-210.56835938888707       49.67051614929856
-210.46841051058297       49.67078250961969
-210.36846163227887       49.671048869940826
-210.26851275397473       49.671048869940826
-210.1685638756706        49.67131243565777
-210.0686149973665        49.67157600137471
-209.96866611906233       49.67157600137471
-209.86871724075826       49.67183683816063
-209.76876836245413       49.67209767494654
-209.66881948415          49.67209767494654
-209.56887060584586       49.6723558640963
-209.46892172754173       49.67261405324607
-209.36897284923762       49.67261405324607
-209.2690239709335        49.67286964432894
-209.16907509262938       49.67312523541182
-209.06912621432525       49.67312523541182
-208.96917733602112       49.673378233713535
-208.869228457717         49.67363123201525
-208.76927957941288       49.67363123201525
-208.66933070110878       49.67388164455609
-208.56938182280464       49.67413205709692
-208.46943294450048       49.67413205709692
-208.36948406619638       49.67437991903314
-208.26953518789227       49.67462778096936
-208.1695863095881        49.67462778096936
-208.069637431284         49.67487315723479
-207.9696885529799        49.675118533500225
-207.86973967467574       49.675118533500225
-207.7697907963716        49.675361409194416
-207.6698419180675        49.67560428488861
-207.56989303976337       49.67560428488861
-207.46994416145927       49.6758467319203
-207.36999528315516       49.67608917895199
-207.27004640485103       49.67608917895199
-207.1700975265469        49.67632437225298
-207.07014864824276       49.67655956555397
-206.97019976993866       49.67655956555397
-206.87025089163453       49.67693873455635
-206.77030201333042       49.67731790355873
-206.6703531350263        49.67731790355873
-206.57040425672216       49.6770479338501
-206.47045537841805       49.676777964141465
-206.37050650011395       49.676777964141465
-206.2705576218098        49.677218012689885
-206.17060874350568       49.677658061238304
-206.07065986520152       49.677658061238304
-205.9707109868974        49.677653511595835
-205.87076210859328       49.67764896195336
-205.77081323028915       49.67764896195336
-205.67086435198502       49.68141852497481
-205.57091547368088       49.68518808799626
-205.47096659537678       49.68518808799626
-205.37101771707265       49.68881472168053
-205.27106883876854       49.6924413553648
-205.17111996046444       49.6924413553648
-205.0711710821603        49.69351896877292
-204.9712222038562        49.694596582181035
-204.87127332555207       49.694596582181035
-204.7713244472479        49.695332847587665
-204.6713755689438        49.6960691129943
-204.57142669063964       49.6960691129943
-204.47147781233554       49.696424247755274
-204.37152893403143       49.69677938251624
-204.27158005572727       49.69677938251624
-204.17163117742317       49.697045863933965
-204.0716822991191        49.69731234535169
-203.97173342081496       49.69731234535169
-203.87178454251082       49.69752326053275
-203.77183566420672       49.6977341757138
-203.67188678590256       49.6977341757138
-203.57193790759842       49.698080173775885
-203.47198902929432       49.69842617183797
-203.3720401509902        49.69842617183797
-203.27209127268605       49.69850912520137
-203.17214239438192       49.69859207856477
-203.07219351607776       49.69859207856477
-202.97224463777366       49.697910989368054
-202.87229575946952       49.69722990017133
-202.77234688116542       49.69722990017133
-202.67239800286129       49.697106249875816
-202.57244912455715       49.6969825995803
-202.47250024625305       49.6969825995803
-202.37255136794892       49.69707662718751
-202.2726024896448        49.697170654794725
-202.17265361134068       49.697170654794725
-202.07270473303657       49.69733138134124
-201.97275585473247       49.69749210788776
-201.8728069764283        49.69749210788776
-201.7728580981242        49.69767470653246
-201.6729092198201        49.69785730517716
-201.57296034151594       49.69785730517716
-201.4730114632118        49.69804765938353
-201.3730625849077        49.6982380135899
-201.27311370660354       49.6982380135899
-201.17316482829943       49.69843104379318
-201.07321594999533       49.698624073996456
-200.9732670716912        49.698624073996456
-200.87331819338706       49.69881768814061
-200.77336931508296       49.69901130228475
-200.6734204367788        49.69901130228475
-200.5734715584747        49.699204536254875
-200.4735226801706        49.699397770225
-200.37357380186646       49.699397770225
-200.27362492356232       49.699590148039164
-200.1736760452582        49.69978252585334
-200.0737271669541        49.69978252585334
-199.97377828864995       49.699973785671006
-199.87382941034585       49.70016504548867
-199.77388053204172       49.70016504548867
-199.67393165373758       49.70035504417649
-199.57398277543348       49.70054504286432
-199.47403389712935       49.70054504286432
-199.3740850188252        49.700733716242596
-199.2741361405211        49.700922389620864
-199.17418726221695       49.700922389620864
-199.0742383839128        49.70110970876901
-198.97428950560874       49.70129702791715
-198.87434062730458       49.70129702791715
-198.77439174900047       49.70148296673867
-198.67444287069637       49.7016689055602
-198.57449399239223       49.7016689055602
-198.4745451140881        49.70185344885278
-198.374596235784         49.702037992145364
-198.27464735747984       49.702037992145364
-198.17469847917573       49.70222112400701
-198.07474960087163       49.70240425586866
-197.9748007225675        49.70240425586866
-197.87485184426333       49.702585865610516
-197.77490296595923       49.70276747535237
-197.67495408765507       49.70276747535237
-197.57500520935096       49.70294842153521
-197.47505633104686       49.70312936771806
-197.37510745274275       49.70312936771806
-197.27515857443862       49.70330074563319
-197.17520969613452       49.70347212354832
-197.07526081783038       49.70347212354832
-196.97531193952628       49.70373263317274
-196.87536306122215       49.70399314279716
-196.77541418291798       49.70399314279716
-196.67546530461385       49.70361685156301
-196.57551642630975       49.70324056032887
-196.4755675480056        49.70324056032887
-196.37561866970148       49.70323401714174
-196.27566979139735       49.703227473954605
-196.17572091309324       49.703227473954605
-196.0757720347891        49.70333949249096
-195.975823156485         49.70345151102732
-195.87587427818087       49.70345151102732
-195.77592539987677       49.7035985804047
-195.67597652157264       49.70374564978209
-195.5760276432685        49.70374564978209
-195.47607876496437       49.70390408502675
-195.37612988666027       49.704062520271414
-195.27618100835613       49.704062520271414
-195.176232130052         49.70422490094752
-195.0762832517479        49.70438728162363
-194.97633437344373       49.70438728162363
-194.87638549513963       49.70455098792836
-194.77643661683553       49.704714694233076
-194.67648773853142       49.704714694233076
-194.5765388602273        49.70487789656256
-194.47658998192315       49.70504109889204
-194.376641103619         49.70504109889204
-194.27669222531486       49.70520954436759
-194.17674334701076       49.70537798984314
-194.07679446870665       49.70537798984314
-193.97684559040252       49.70551258079992
-193.8768967120984        49.70564717175669
-193.77694783379428       49.70564717175669
-193.67699895549015       49.705315969823175
-193.57705007718602       49.70498476788966
-193.4771011988819        49.70498476788966
-193.37715232057778       49.70499682580132
-193.27720344227367       49.70500888371297
-193.1772545639695        49.70500888371297
-193.07730568566538       49.70511038997327
-192.97735680736128       49.70521189623358
-192.87740792905714       49.70521189623358
-192.777459050753         49.70534729958984
-192.6775101724489        49.7054827029461
-192.57756129414477       49.7054827029461
-192.47761241584067       49.70562960182639
-192.3776635375366        49.705776500706676
-192.27771465923243       49.705776500706676
-192.1777657809283        49.70592744161248
-192.07781690262416       49.706078382518285
-191.97786802432003       49.706078382518285
-191.8779191460159        49.70623053781935
-191.7779702677118        49.706382693120425
-191.67802138940766       49.706382693120425
-191.57807251110353       49.70653573902234
-191.47812363279942       49.70668878492426
-191.3781747544953        49.70668878492426
-191.27822587619116       49.70683443040718
-191.17827699788702       49.706980075890094
-191.07832811958292       49.706980075890094
-190.9783792412788        49.70718730088376
-190.87843036297465       49.70739452587743
-190.77848148467055       49.70739452587743
-190.67853260636642       49.70754069704656
-190.5785837280623        49.70768686821569
-190.47863484975818       49.70768686821569
-190.37868597145405       49.707820081772624
-190.27873709314994       49.70795329532957
-190.1787882148458        49.70795329532957
-190.07883933654168       49.70809333074425
-189.97889045823757       49.708233366158936
-189.87894157993344       49.708233366158936
-189.7789927016293        49.70837667304252
-189.67904382332517       49.70851997992611
-189.57909494502104       49.70851997992611
-189.4791460667169        49.708664398465984
-189.3791971884128        49.70880881700586
-189.27924831010867       49.70880881700586
-189.17929943180457       49.708953363971446
-189.07935055350046       49.709097910937025
-188.97940167519633       49.709097910937025
-188.8794527968922        49.70924213312716
-188.7795039185881        49.70938635531729
-188.67955504028396       49.70938635531729
-188.5796061619798        49.70953002699996
-188.4796572836757        49.70967369868263
-188.37970840537156       49.70967369868263
-188.27975952706743       49.70981669595926
-188.17981064876332       49.709959693235895
-188.07986177045916       49.709959693235895
-187.97991289215506       49.710101951190445
-187.87996401385095       49.710244209144996
-187.78001513554682       49.710244209144996
-187.6800662572427        49.710385698641474
-187.5801173789386        49.71052718813796
-187.48016850063448       49.71052718813796
-187.38021962233034       49.71066788825369
-187.2802707440262        49.71080858836942
-187.18032186572208       49.71080858836942
-187.08037298741795       49.71094848265594
-186.9804241091138        49.71108837694245
-186.88047523080968       49.71108837694245
-186.78052635250555       49.711227458666414
-186.68057747420144       49.71136654039037
-186.58062859589728       49.71136654039037
-186.48067971759318       49.71150480111407
-186.3807308392891        49.71164306183776
-186.28078196098494       49.71164306183776
-186.1808330826808        49.71178049280009
-186.0808842043767        49.711917923762414
-185.98093532607257       49.711917923762414
-185.88098644776844       49.71205452571917
-185.7810375694643        49.71219112767593
-185.68108869116017       49.71219112767593
-185.58113981285604       49.7123269016852
-185.48119093455193       49.71246267569448
-185.3812420562478        49.71246267569448
-185.28129317794367       49.712597616423565
-185.18134429963956       49.71273255715265
-185.08139542133543       49.71273255715265
-184.9814465430313        49.71286666413741
-184.88149766472716       49.713000771122175
-184.78154878642303       49.713000771122175
-184.6815999081189        49.71313405307651
-184.5816510298148        49.71326733503084
-184.48170215151063       49.71326733503084
-184.38175327320653       49.713399800259545
-184.28180439490242       49.71353226548825
-184.1818555165983        49.71353226548825
-184.08190663829416       49.71366392016432
-183.98195775999008       49.71379557484039
-183.88200888168592       49.71379557484039
-183.7820600033818        49.71392643173809
-183.68211112507765       49.71405728863579
-183.58216224677352       49.71405728863579
-183.4822133684694        49.71418737399753
-183.38226449016528       49.714317459359265
-183.28231561186112       49.714317459359265
-183.182366733557         49.71444680391825
-183.08241785525288       49.71457614847724
-182.98246897694875       49.71457614847724