% Model:              NoFlux-Nankai-NonHC.mph
% Version:            COMSOL 5.5.0.359
% Date:               May 12 2026, 21:30
% Dimension:          1
% Nodes:              2694
% Expressions:        1
% Description:        Line graph
% X                       Height
-170                      122.14840054628269
-169.90008620262333       122.14840054628269
-169.80017240524666       122.14840054628269
-169.70025860786998       121.59912919846951
-169.60034481049325       121.04985785065635
-169.50043101311655       121.04985785065635
-169.40051721573985       121.10517819166876
-169.30060341836318       121.16049853268117
-169.20068962098648       121.16049853268117
-169.10077582360978       121.20436811527078
-169.0008620262331        121.24823769786039
-168.90094822885638       121.24823769786039
-168.80103443147968       121.29598284876363
-168.70112063410303       121.34372799966688
-168.6012068367263        121.34372799966688
-168.50129303934963       121.36621426622288
-168.40137924197296       121.38870053277888
-168.30146544459626       121.38870053277888
-168.2015516472196        121.39329227325067
-168.1016378498429        121.39788401372245
-168.0017240524662        121.39788401372245
-167.9018102550895        121.41494832897766
-167.80189645771281       121.43201264423287
-167.70198266033614       121.43201264423287
-167.60206886295944       121.44040107836139
-167.50215506558277       121.44878951248991
-167.40224126820604       121.44878951248991
-167.30232747082934       121.45319029993996
-167.20241367345267       121.45759108739
-167.10249987607594       121.45759108739
-167.00258607869927       121.4629402572481
-166.9026722813226        121.4682894271062
-166.8027584839459        121.4682894271062
-166.7028446865692        121.47963253585
-166.6029308891925        121.4909756445938
-166.5030170918158        121.4909756445938
-166.40310329443912       121.48501238290355
-166.30318949706245       121.4790491212133
-166.20327569968575       121.4790491212133
-166.10336190230908       121.48194642156393
-166.00344810493237       121.48484372191457
-165.90353430755565       121.48484372191457
-165.80362051017897       121.46836426737875
-165.7037067128023        121.4518848128429
-165.60379291542563       121.4518848128429
-165.5038791180489        121.45032133103638
-165.4039653206722        121.44875784922984
-165.30405152329553       121.44875784922984
-165.20413772591883       121.43587079538847
-165.10422392854215       121.4229837415471
-165.00431013116543       121.4229837415471
-164.90439633378875       121.41863444193748
-164.80448253641208       121.41428514232786
-164.7045687390354        121.41428514232786
-164.6046549416587        121.4003075950288
-164.504741144282         121.38633004772977
-164.4048273469053        121.38633004772977
-164.30491354952864       121.38099610404258
-164.20499975215196       121.37566216035539
-164.10508595477526       121.37566216035539
-164.00517215739853       121.36079233486822
-163.90525836002186       121.34592250938104
-163.80534456264516       121.34592250938104
-163.70543076526846       121.33988012238746
-163.6055169678918        121.33383773539387
-163.5056031705151        121.33383773539387
-163.4056893731384        121.31887998817251
-163.30577557576171       121.30392224095115
-163.205861778385         121.30392224095115
-163.1059479810083        121.29828697992582
-163.0060341836316        121.29265171890047
-162.9061203862549        121.29265171890047
-162.80620658887824       121.2767995136149
-162.70629279150157       121.26094730832934
-162.60637899412487       121.26094730832934
-162.50646519674817       121.25223965757681
-162.4065513993715        121.24353200682428
-162.3066376019948        121.24353200682428
-162.20672380461812       121.22636928511344
-162.10681000724145       121.20920656340257
-162.0068962098647        121.20920656340257
-161.90698241248802       121.20219696186878
-161.80706861511135       121.19518736033498
-161.70715481773465       121.19518736033498
-161.60724102035795       121.17843064204183
-161.50732722298127       121.16167392374867
-161.40741342560455       121.16167392374867
-161.30749962822787       121.15200378555431
-161.2075858308512        121.14233364735998
-161.1076720334745        121.14233364735998
-161.00775823609783       121.12407208674483
-160.90784443872113       121.10581052612969
-160.8079306413444        121.10581052612969
-160.70801684396773       121.0971836997787
-160.60810304659105       121.08855687342769
-160.50818924921438       121.08855687342769
-160.40827545183768       121.06970867589314
-160.308361654461         121.05086047835857
-160.2084478570843        121.05086047835857
-160.1085340597076        121.03635370835562
-160.00862026233094       121.02184693835267
-159.9087064649542        121.02184693835267
-159.8087926675775        120.99055826405001
-159.70887887020083       120.95926958974736
-159.60896507282416       120.95926958974736
-159.50905127544746       120.93824080559531
-159.40913747807076       120.91721202144326
-159.30922368069406       120.91721202144326
-159.20930988331736       120.91319761812291
-159.1093960859407        120.90918321480255
-159.00948228856402       120.90918321480255
-158.90956849118731       120.91019962963185
-158.80965469381061       120.91121604446116
-158.7097408964339        120.91121604446116
-158.6098270990572        120.89560230121879
-158.50991330168054       120.8799885579764
-158.40999950430384       120.8799885579764
-158.31008570692714       120.87114832565042
-158.21017190955047       120.86230809332444
-158.11025811217377       120.86230809332444
-158.01034431479707       120.84352356519405
-157.91043051742037       120.82473903706365
-157.81051672004367       120.82473903706365
-157.710602922667         120.81495597222343
-157.61068912529032       120.8051729073832
-157.51077532791365       120.8051729073832
-157.41086153053698       120.78611605753476
-157.31094773316028       120.76705920768632
-157.21103393578358       120.76705920768632
-157.11112013840687       120.75706520284365
-157.0112063410302        120.74707119800097
-156.91129254365353       120.74707119800097
-156.8113787462768        120.72771498841747
-156.7114649489001        120.70835877883398
-156.6115511515234        120.70835877883398
-156.5116373541467        120.69830752719268
-156.41172355677003       120.68825627555138
-156.3118097593933        120.68825627555138
-156.21189596201663       120.66940353007847
-156.11198216463995       120.65055078460556
-156.01206836726325       120.65055078460556
-155.91215456988658       120.64152530272094
-155.81224077250988       120.63249982083632
-155.7123269751332        120.63249982083632
-155.6124131777565        120.61330777215272
-155.51249938037984       120.59411572346914
-155.41258558300314       120.59411572346914
-155.31267178562643       120.5823811351591
-155.21275798824976       120.57064654684906
-155.11284419087306       120.57064654684906
-155.01293039349636       120.55061484089228
-154.9130165961197        120.53058313493551
-154.81310279874296       120.53058313493551
-154.7131890013663        120.52107473973842
-154.6132752039896        120.51156634454135
-154.5133614066129        120.51156634454135
-154.4134476092362        120.49226465377589
-154.3135338118595        120.47296296301043
-154.2136200144828        120.47296296301043
-154.11370621710614       120.46099340075395
-154.01379241972947       120.44902383849747
-153.91387862235277       120.44902383849747
-153.8139648249761        120.42815034351008
-153.71405102759937       120.4072768485227
-153.6141372302227        120.4072768485227
-153.514223432846         120.39636047626894
-153.4143096354693        120.38544410401516
-153.31439583809262       120.38544410401516
-153.2144820407159        120.36567927636798
-153.11456824333922       120.34591444872079
-153.01465444596252       120.34591444872079
-152.91474064858582       120.33577194080127
-152.81482685120915       120.32562943288175
-152.71491305383245       120.32562943288175
-152.61499925645577       120.30588371411841
-152.5150854590791        120.28613799535505
-152.4151716617024        120.28613799535505
-152.31525786432573       120.27468063628913
-152.21534406694903       120.26322327722322
-152.11543026957233       120.26322327722322
-152.01551647219563       120.2424180339168
-151.91560267481896       120.22161279061038
-151.81568887744228       120.22161279061038
-151.71577508006555       120.21089122997927
-151.61586128268888       120.20016966934814
-151.51594748531218       120.20016966934814
-151.41603368793548       120.18054353545838
-151.31611989055878       120.16091740156864
-151.21620609318208       120.16091740156864
-151.11629229580538       120.15132759967405
-151.0163784984287        120.14173779777946
-150.916464701052         120.14173779777946
-150.81655090367533       120.12217232486991
-150.71663710629863       120.10260685196036
-150.61672330892196       120.10260685196036
-150.51680951154526       120.0909100150381
-150.4168957141686        120.07921317811585
-150.3169819167919        120.07921317811585
-150.2170681194152        120.05864286380286
-150.11715432203852       120.03807254948987
-150.01724052466182       120.03807254948987
-149.91732672728511       120.0262947673761
-149.81741292990844       120.01451698526233
-149.7174991325317        120.01451698526233
-149.61758533515504       119.99412310306919
-149.51767153777834       119.97372922087604
-149.41775774040167       119.97372922087604
-149.31784394302497       119.96390158336868
-149.2179301456483        119.95407394586134
-149.11801634827157       119.95407394586134
-149.01810255089487       119.93484548998521
-148.9181887535182        119.91561703410908
-148.8182749561415        119.91561703410908
-148.71836115876482       119.90452829399717
-148.61844736138812       119.89343955388526
-148.51853356401142       119.89343955388526
-148.41861976663472       119.87295291412961
-148.31870596925805       119.85246627437397
-148.21879217188138       119.85246627437397
-148.11887837450467       119.84038601895455
-148.018964577128         119.82830576353511
-147.91905077975127       119.82830576353511
-147.8191369823746        119.80746303951474
-147.71922318499793       119.78662031549437
-147.6193093876212        119.78662031549437
-147.5193955902445        119.77454480003101
-147.41948179286783       119.76246928456764
-147.31956799549116       119.76246928456764
-147.21965419811448       119.74134329650657
-147.11974040073778       119.7202173084455
-147.01982660336105       119.7202173084455
-146.91991280598435       119.70891176628888
-146.81999900860768       119.69760622413226
-146.72008521123098       119.69760622413226
-146.62017141385428       119.67737242555012
-146.52025761647758       119.65713862696796
-146.42034381910088       119.65713862696796
-146.32043002172418       119.64666517934783
-146.2205162243475        119.6361917317277
-146.1206024269708        119.6361917317277
-146.02068862959413       119.61643609656522
-145.92077483221746       119.59668046140274
-145.82086103484076       119.59668046140274
-145.7209472374641        119.58547881133147
-145.6210334400874        119.5742771612602
-145.52111964271066       119.5742771612602
-145.421205845334         119.55364150333992
-145.32129204795731       119.53300584541964
-145.2213782505806        119.53300584541964
-145.1214644532039        119.52096888854166
-145.0215506558272        119.50893193166367
-144.9216368584505        119.50893193166367
-144.8217230610738        119.48779049522943
-144.72180926369714       119.46664905879518
-144.62189546632044       119.46664905879518
-144.52198166894377       119.45541867307074
-144.42206787156707       119.4441882873463
-144.32215407419037       119.4441882873463
-144.22224027681366       119.42427470185368
-144.12232647943696       119.40436111636107
-144.02241268206026       119.40436111636107
-143.9224988846836        119.39449469083473
-143.82258508730692       119.38462826530838
-143.72267128993025       119.38462826530838
-143.62275749255357       119.36456780537002
-143.52284369517687       119.34450734543165
-143.42292989780017       119.34450734543165
-143.32301610042347       119.33196282556864
-143.2231023030468        119.31941830570564
-143.12318850567013       119.31941830570564
-143.0232747082934        119.297943274568
-142.9233609109167        119.27646824343036
-142.82344711354          119.27646824343036
-142.7235333161633        119.2650207734809
-142.62361951878663       119.25357330353145
-142.5237057214099        119.25357330353145
-142.42379192403322       119.23295018146607
-142.32387812665655       119.21232705940068
-142.22396432927985       119.21232705940068
-142.12405053190318       119.20119579095721
-142.02413673452648       119.19006452251375
-141.92422293714975       119.19006452251375
-141.82430913977308       119.16982428780723
-141.7243953423964        119.14958405310071
-141.6244815450197        119.14958405310071
-141.524567747643         119.13860494271967
-141.4246539502663        119.12762583233861
-141.32474015288963       119.12762583233861
-141.22482635551293       119.10686283435362
-141.12491255813626       119.08609983636865
-141.02499876075956       119.08609983636865
-140.9250849633829        119.0733252588916
-140.82517116600619       119.06055068141455
-140.72525736862949       119.06055068141455
-140.62534357125278       119.03026003680363
-140.52542977387608       118.9999693921927
-140.42551597649938       118.9999693921927
-140.3256021791227        118.98897443480622
-140.225688381746         118.97797947741975
-140.12577458436934       118.97797947741975
-140.0258607869926        118.9699741008666
-139.92594698961594       118.96196872431344
-139.82603319223924       118.96196872431344
-139.72611939486256       118.94311669293867
-139.6262055974859        118.92426466156392
-139.52629180010914       118.92426466156392
-139.42637800273246       118.91348790069648
-139.3264642053558        118.90271113982905
-139.2265504079791        118.90271113982905
-139.1266366106024        118.88268397861106
-139.02672281322572       118.86265681739306
-138.92680901584902       118.86265681739306
-138.82689521847234       118.85204881654045
-138.72698142109567       118.84144081568782
-138.62706762371897       118.84144081568782
-138.5271538263423        118.82157289193037
-138.42724002896557       118.80170496817291
-138.3273262315889        118.80170496817291
-138.2274124342122        118.7908349639909
-138.12749863683553       118.7799649598089
-138.02758483945883       118.7799649598089
-137.9276710420821        118.7599248662551
-137.8277572447054        118.73988477270132
-137.72784344732872       118.73988477270132
-137.62792964995202       118.72914201382311
-137.52801585257535       118.7183992549449
-137.42810205519862       118.7183992549449
-137.32818825782195       118.69711680136294
-137.22827446044528       118.67583434778096
-137.12836066306855       118.67583434778096
-137.02844686569188       118.66435307780625
-136.92853306831518       118.65287180783156
-136.82861927093847       118.65287180783156
-136.7287054735618        118.63305276818043
-136.62879167618513       118.61323372852931
-136.52887787880843       118.61323372852931
-136.42896408143173       118.60268376636856
-136.32905028405506       118.59213380420782
-136.22913648667836       118.59213380420782
-136.12922268930168       118.57102145831286
-136.02930889192498       118.5499091124179
-135.92939509454828       118.5499091124179
-135.82948129717158       118.53841533600547
-135.7295674997949        118.52692155959303
-135.6296537024182        118.52692155959303
-135.5297399050415        118.50695513383384
-135.42982610766478       118.48698870807465
-135.3299123102881        118.48698870807465
-135.2299985129114        118.47629395588632
-135.13008471553474       118.46559920369798
-135.03017091815806       118.46559920369798
-134.9302571207814        118.44423199730817
-134.83034332340466       118.42286479091835
-134.730429526028         118.42286479091835
-134.6305157286513        118.41092373568453
-134.53060193127462       118.39898268045071
-134.43068813389792       118.39898268045071
-134.3307743365212        118.37820694966538
-134.23086053914452       118.35743121888004
-134.13094674176781       118.35743121888004
-134.03103294439114       118.34625426884946
-133.93111914701447       118.33507731881888
-133.83120534963774       118.33507731881888
-133.73129155226107       118.31492099896712
-133.6313777548844        118.29476467911539
-133.5314639575077        118.29476467911539
-133.43155016013102       118.28418581079633
-133.3316363627543        118.27360694247727
-133.2317225653776        118.27360694247727
-133.1318087680009        118.25419258646497
-133.03189497062422       118.23477823045268
-132.93198117324752       118.23477823045268
-132.83206737587082       118.22460470687355
-132.73215357849415       118.21443118329444
-132.63223978111745       118.21443118329444
-132.53232598374075       118.19382622488772
-132.43241218636408       118.17322126648098
-132.33249838898737       118.17322126648098
-132.23258459161067       118.16483375183847
-132.132670794234         118.15644623719595
-132.0327569968573        118.15644623719595
-131.9328431994806        118.1364664436804
-131.8329294021039        118.11648665016487
-131.7330156047272        118.11648665016487
-131.63310180735053       118.10719098527306
-131.53318800997386       118.09789532038127
-131.43327421259718       118.09789532038127
-131.33336041522048       118.07667430912585
-131.2334466178438        118.05545329787043
-131.13353282046708       118.05545329787043
-131.03361902309038       118.04454723578903
-130.9337052257137        118.03364117370762
-130.83379142833698       118.03364117370762
-130.7338776309603        118.0117809921251
-130.63396383358364       117.98992081054259
-130.53405003620693       117.98992081054259
-130.43413623883023       117.97903106467587
-130.33422244145353       117.96814131880916
-130.23430864407683       117.96814131880916
-130.13439484670016       117.9472639383105
-130.03448104932346       117.92638655781185
-129.9345672519468        117.92638655781185
-129.8346534545701        117.91569308220309
-129.7347396571934        117.90499960659433
-129.6348258598167        117.90499960659433
-129.53491206244          117.88388899563759
-129.4349982650633        117.86277838468087
-129.33508446768664       117.86277838468087
-129.23517067030994       117.85312734771856
-129.13525687293327       117.84347631075626
-129.03534307555657       117.84347631075626
-128.93542927817987       117.82258255015643
-128.8355154808032        117.80168878955661
-128.73560168342647       117.80168878955661
-128.63568788604977       117.79141616464861
-128.5357740886731        117.78114353974061
-128.4358602912964        117.78114353974061
-128.3359464939197        117.76027209418626
-128.23603269654302       117.7394006486319
-128.13611889916632       117.7394006486319
-128.03620510178962       117.72916661755822
-127.93629130441295       117.71893258648454
-127.83637750703623       117.71893258648454
-127.73646370965956       117.69798221793319
-127.63654991228286       117.67703184938183
-127.53663611490617       117.67703184938183
-127.43672231752949       117.66670663459666
-127.33680852015279       117.65638141981151
-127.23689472277609       117.65638141981151
-127.13698092539939       117.63524930190438
-127.03706712802273       117.61411718399725
-126.93715333064603       117.61411718399725
-126.83723953326934       117.60334702937669
-126.73732573589267       117.59257687475615
-126.63741193851595       117.59257687475615
-126.53749814113927       117.57134687019737
-126.43758434376258       117.55011686563859
-126.33767054638587       117.55011686563859
-126.23775674900918       117.54013614499459
-126.13784295163249       117.53015542435061
-126.03792915425578       117.53015542435061
-125.93801535687909       117.50866472225233
-125.8381015595024        117.48717402015406
-125.73818776212572       117.48717402015406
-125.63827396474903       117.47637877401878
-125.53836016737233       117.46558352788351
-125.43844636999566       117.46558352788351
-125.33853257261896       117.44479982674125
-125.23861877524227       117.42401612559898
-125.13870497786557       117.42401612559898
-125.03879118048887       117.41445595151946
-124.93887738311219       117.40489577743993
-124.83896358573547       117.40489577743993
-124.73904978835878       117.38465983849866
-124.63913599098211       117.36442389955738
-124.53922219360541       117.36442389955738
-124.43930839622872       117.35434799655951
-124.33939459885202       117.34427209356163
-124.23948080147535       117.34427209356163
-124.13956700409867       117.32327599519557
-124.03965320672197       117.30227989682952
-123.93973940934528       117.30227989682952
-123.83982561196859       117.29144972214849
-123.73991181459189       117.28061954746744
-123.63999801721519       117.28061954746744
-123.54008421983849       117.25858295527784
-123.4401704224618        117.23654636308825
-123.34025662508512       117.23654636308825
-123.24034282770842       117.22526336804668
-123.14042903033173       117.21398037300513
-123.04051523295504       117.21398037300513
-122.94060143557836       117.19386152950156
-122.84068763820167       117.173742685998
-122.74077384082496       117.173742685998
-122.64086004344827       117.16346046474834
-122.54094624607157       117.1531782434987
-122.4410324486949        117.1531782434987
-122.34111865131821       117.13336203703409
-122.24120485394151       117.11354583056949
-122.14129105656482       117.11354583056949
-122.04137725918812       117.103104155354
-121.94146346181145       117.0926624801385
-121.84154966443477       117.0926624801385
-121.74163586705806       117.07118936844458
-121.64172206968139       117.04971625675066
-121.54180827230469       117.04971625675066
-121.44189447492798       117.0385818094127
-121.34198067755129       117.02744736207474
-121.24206688017458       117.02744736207474
-121.14215308279789       117.00825558787918
-121.0422392854212        116.98906381368363
-120.9423254880445        116.98906381368363
-120.84241169066782       116.97914373024257
-120.74249789329113       116.96922364680151
-120.64258409591444       116.96922364680151
-120.54267029853777       116.94891602395755
-120.44275650116109       116.92860840111359
-120.34284270378438       116.92860840111359
-120.24292890640767       116.91776788712454
-120.143015109031         116.90692737313549
-120.0431013116543        116.90692737313549
-119.9431875142776        116.88669176649006
-119.84327371690091       116.86645615984462
-119.74335991952421       116.86645615984462
-119.64344612214752       116.85553940022399
-119.54353232477085       116.84462264060338
-119.44361852739415       116.84462264060338
-119.34370473001746       116.8245036105324
-119.24379093264079       116.80438458046143
-119.14387713526408       116.80438458046143
-119.04396333788738       116.7934472417468
-118.94404954051069       116.78250990303216
-118.84413574313399       116.78250990303216
-118.7442219457573        116.76237133235938
-118.6443081483806        116.74223276168661
-118.54439435100392       116.74223276168661
-118.44448055362722       116.73123675524397
-118.34456675625054       116.72024074880133
-118.24465295887386       116.72024074880133
-118.14473916149716       116.70041651000363
-118.04482536412048       116.68059227120592
-117.94491156674377       116.68059227120592
-117.84499776936708       116.66985013896556
-117.7450839719904        116.6591080067252
-117.64517017461368       116.6591080067252
-117.545256377237         116.63941962446611
-117.44534257986031       116.61973124220704
-117.34542878248362       116.61973124220704
-117.24551498510694       116.60892855672186
-117.14560118773025       116.59812587123669
-117.04568739035356       116.59812587123669
-116.94577359297686       116.57822368099123
-116.84585979560018       116.55832149074577
-116.74594599822348       116.55832149074577
-116.64603220084678       116.54838511561067
-116.54611840347009       116.53844874047557
-116.44620460609337       116.53844874047557
-116.34629080871669       116.5175942163696
-116.24637701134          116.49673969226363
-116.1464632139633        116.49673969226363
-116.04654941658661       116.48634519797876
-115.94663561920994       116.4759507036939
-115.84672182183324       116.4759507036939
-115.74680802445656       116.45496777515471
-115.64689422707987       116.43398484661553
-115.54698042970317       116.43398484661553
-115.4470666323265        116.42390444629456
-115.3471528349498        116.41382404597357
-115.24723903757311       116.41382404597357
-115.1473252401964        116.39365609888529
-115.04741144281972       116.373488151797
-114.94749764544302       116.373488151797
-114.84758384806632       116.36323543634305
-114.74767005068965       116.3529827208891
-114.64775625331295       116.3529827208891
-114.54784245593626       116.33232593699191
-114.44792865855958       116.31166915309471
-114.34801486118286       116.31166915309471
-114.24810106380617       116.3017758350625
-114.14818726642947       116.2918825170303
-114.04827346905277       116.2918825170303
-113.94835967167609       116.27201901909594
-113.8484458742994        116.25215552116157
-113.74853207692271       116.25215552116157
-113.64861827954603       116.24255212274393
-113.54870448216936       116.23294872432629
-113.44879068479266       116.23294872432629
-113.34887688741597       116.21228690659372
-113.24896309003928       116.19162508886114
-113.14904929266258       116.19162508886114
-113.04913549528588       116.1819546288267
-112.9492216979092        116.17228416879226
-112.8493079005325        116.17228416879226
-112.7493941031558        116.15157090351805
-112.64948030577912       116.13085763824384
-112.5495665084024        116.13085763824384
-112.44965271102572       116.12118208930886
-112.34973891364903       116.11150654037388
-112.24982511627235       116.11150654037388
-112.14991131889566       116.09079235860064
-112.04999752151896       116.0700781768274
-111.95008372414226       116.0700781768274
-111.85016992676557       116.06042452353267
-111.75025612938889       116.05077087023794
-111.6503423320122        116.05077087023794
-111.55042853463549       116.03010821878851
-111.45051473725881       116.0094455673391
-111.35060093988211       116.0094455673391
-111.25068714250541       115.99942525575088
-111.15077334512875       115.98940494416266
-111.05085954775204       115.98940494416266
-110.95094575037537       115.96897912643647
-110.85103195299868       115.94855330871026
-110.75111815562197       115.94855330871026
-110.65120435824528       115.93759284345533
-110.55129056086858       115.92663237820041
-110.4513767634919        115.92663237820041
-110.35146296611521       115.90697488967871
-110.2515491687385        115.88731740115699
-110.1516353713618        115.88731740115699
-110.05172157398512       115.87597917145352
-109.95180777660843       115.86464094175005
-109.85189397923175       115.86464094175005
-109.75198018185505       115.84080639680892
-109.65206638447836       115.81697185186778
-109.55215258710165       115.81697185186778
-109.45223878972497       115.79219369125721
-109.35232499234829       115.76741553064664
-109.25241119497159       115.76741553064664
-109.15249739759489       115.74972115032678
-109.05258360021821       115.73202677000691
-108.9526698028415        115.73202677000691
-108.85275600546483       115.71636499685908
-108.75284220808814       115.70070322371126
-108.65292841071144       115.70070322371126
-108.55301461333477       115.68491443256144
-108.45310081595808       115.66912564141164
-108.35318701858138       115.66912564141164
-108.25327322120468       115.65399781633602
-108.153359423828         115.63886999126039
-108.05344562645129       115.63886999126039
-107.95353182907459       115.62353674981267
-107.8536180316979        115.60820350836494
-107.75370423432119       115.60820350836494
-107.65379043694452       115.59369892517029
-107.55387663956783       115.57919434197564
-107.45396284219113       115.57919434197564
-107.35404904481445       115.56313336050376
-107.25413524743774       115.54707237903187
-107.15422145006104       115.54707237903187
-107.05430765268436       115.52844800133735
-106.95439385530767       115.50982362364284
-106.85448005793099       115.50982362364284
-106.7545662605543        115.49506761758701
-106.6546524631776        115.48031161153119
-106.55473866580093       115.48031161153119
-106.45482486842423       115.47026598639621
-106.35491107104754       115.46022036126122
-106.25499727367085       115.46022036126122
-106.15508347629415       115.45072504616607
-106.05516967891747       115.44122973107093
-105.95525588154075       115.44122973107093
-105.85534208416406       115.44121592445649
-105.75542828678738       115.44120211784205
-105.65551448941068       115.44120211784205
-105.55560069203399       115.41243400954491
-105.45568689465729       115.38366590124777
-105.35577309728062       115.38366590124777
-105.25585929990393       115.3570248101664
-105.15594550252723       115.330383719085
-105.05603170515055       115.330383719085
-104.95611790777384       115.31865799796594
-104.85620411039716       115.30693227684687
-104.75629031302046       115.30693227684687
-104.65637651564376       115.28993280541019
-104.55646271826707       115.27293333397353
-104.45654892089037       115.27293333397353
-104.35663512351368       115.25726116885217
-104.256721326137         115.24158900373081
-104.15680752876031       115.24158900373081
-104.05689373138362       115.22777328114981
-103.95697993400694       115.21395755856881