% Model:              Japan_mu012_1E10_xsw0.mph
% Version:            COMSOL 5.5.0.359
% Date:               May 18 2026, 05:35
% Dimension:          1
% Nodes:              8269
% Expressions:        1
% Description:        Line graph
% X                       Height
-249.99999999999997       26.600732326883474
-249.95000999800038       26.656434825415943
-249.90001999600074       26.712137323948355
-249.85002999400118       26.767839822480823
-249.80003999200156       26.782425005062464
-249.75004999000194       26.797010187644048
-249.70005998800232       26.81159537022569
-249.65006998600273       26.819866184067905
-249.6000799840031        26.82813699791018
-249.55008998200347       26.836407811752395
-249.50009998000388       26.8420045251695
-249.45010997800424       26.847601238586492
-249.40011997600462       26.85319795200354
-249.350129974005         26.85775754990948
-249.30013997200538       26.862317147815304
-249.25014997000576       26.866876745721186
-249.20015996800618       26.87056898108341
-249.15016996600653       26.874261216445575
-249.1001799640069        26.877953451807798
-249.05018996200732       26.881405451915043
-249.00019996000768       26.88485745202223
-248.95020995800806       26.888309452129477
-248.90021995600844       26.890836516797208
-248.85022995400882       26.893363581464882
-248.8002399520092        26.895890646132557
-248.75024995000962       26.898520970280856
-248.70025994800997       26.9011512944291
-248.65026994601035       26.90378161857734
-248.60027994401077       26.90577056131258
-248.55028994201112       26.90775950404776
-248.5002999400115        26.909748446783
-248.45030993801188       26.911896442996976
-248.40031993601227       26.914044439210898
-248.35032993401265       26.916192435424875
-248.30033993201306       26.917685805910935
-248.2503499300134        26.919179176396938
-248.2003599280138        26.920672546882997
-248.15036992601418       26.923168969495237
-248.10037992401456       26.925665392107476
-248.05038992201494       26.928161814719715
-248.0003999200153        26.930385346752473
-247.9504099180157        26.93260887878523
-247.9004199160161        26.93483241081799
-247.85042991401647       26.93542602545449
-247.80043991201686       26.936019640090876
-247.75044991001724       26.93661325472732
-247.70045990801762       26.938004550896153
-247.650469906018         26.93939584706493
-247.60047990401839       26.940787143233706
-247.55048990201877       26.94229340189719
-247.50049990001915       26.94379966056067
-247.45050989801956       26.945305919224154
-247.40051989601994       26.946335840878135
-247.3505298940203        26.947365762532115
-247.3005398920207        26.948395684186096
-247.2505498900211        26.949498411350476
-247.20055988802144       26.9506011385148
-247.15056988602186       26.95170386567918
-247.10057988402224       26.95259884184935
-247.05058988202262       26.953493818019467
-247.000599880023         26.95438879418964
-246.95060987802339       26.95615178272783
-246.90061987602374       26.957914771266076
-246.85062987402415       26.959677759804265
-246.80063987202453       26.96112887709387
-246.7506498700249        26.962579994383418
-246.7006598680253        26.964031111672966
-246.65066986602568       26.964187705741665
-246.60067986402606       26.964344299810364
-246.55068986202642       26.964500893879062
-246.50069986002683       26.965747322083303
-246.45070985802718       26.966993750287543
-246.40071985602756       26.968240178491783
-246.35072985402797       26.96878003040598
-246.30073985202833       26.96931988232018
-246.2507498500287        26.96985973423432
-246.20075984802912       26.971095117019388
-246.1507698460295        26.9723304998044
-246.10077984402986       26.973565882589412
-246.05078984203027       26.974038743589745
-246.00079984003062       26.97451160459002
-245.950809838031         26.974984465590353
-245.90081983603142       26.976149751920502
-245.85082983403177       26.977315038250595
-245.80083983203215       26.978480324580744
-245.75084983003256       26.97888931584731
-245.70085982803295       26.979298307113822
-245.6508698260333        26.97970729838039
-245.6008798240337        26.980813494226766
-245.55088982203407       26.98191969007314
-245.50089982003445       26.98302588591946
-245.45090981803486       26.983379965104632
-245.4009198160352        26.983734044289747
-245.3509298140356        26.98408812347492
-245.300939812036         26.98514297351761
-245.2509498100364        26.986197823560246
-245.20095980803674       26.98725267360294
-245.15096980603715       26.98755868012637
-245.10097980403756       26.9878646866498
-245.05098980203792       26.988170693173174
-245.0009998000383        26.989180286297483
-244.95100979803865       26.99018987942179
-244.90101979603904       26.9911994725461
-244.85102979403945       26.99146294422667
-244.8010397920398        26.991726415907237
-244.75104979004018       26.991989887587806
-244.7010597880406        26.992959279873105
-244.65106978604092       26.993928672158347
-244.60107978404133       26.99489806444359
-244.55108978204174       26.9951235226647
-244.50109978004207       26.995348980885865
-244.45110977804248       26.995574439106974
-244.4011197760429        26.996502983409187
-244.35112977404324       26.9974315277114
-244.30113977204363       26.99836007201361
-244.25114977004404       26.99855665930147
-244.20115976804436       26.99875324658933
-244.15116976604477       26.99894983387719
-244.10117976404518       26.999846256763306
-244.0511897620455        27.00074267964942
-244.00119976004592       27.001639102535535
-243.95120975804633       27.00180467664734
-243.9012197560467        27.0019702507592
-243.85122975404707       27.002135824871004
-243.80123975204748       27.003002576933227
-243.7512497500478        27.003869328995336
-243.70125974804822       27.0047360810575
-243.65126974604863       27.00487360635958
-243.60127974404895       27.005011131661604
-243.55128974204936       27.005148656963627
-243.50129974004977       27.005983838847214
-243.45130973805013       27.006819020730745
-243.4013197360505        27.007654202614333
-243.3513297340509        27.007771817793298
-243.30133973205125       27.007889432972206
-243.25134973005166       27.008007048151114
-243.20135972805204       27.008818321536353
-243.1513697260524        27.009629594921535
-243.1013797240528        27.010440868306773
-243.0513897220532        27.01053528721752
-243.00139972005357       27.010629706128213
-242.95140971805395       27.010724125038962
-242.90141971605433       27.011512913956608
-242.85142971405475       27.012301702874197
-242.80143971205513       27.013090491791843
-242.7514497100555        27.01316373858492
-242.7014597080559        27.013236985378057
-242.65146970605628       27.013310232171136
-242.6014797040567        27.014078604319877
-242.55148970205704       27.01484697646862
-242.50149970005745       27.01561534861736
-242.45150969805783       27.01566909413873
-242.4015196960582        27.015722839660043
-242.35152969405857       27.015776585181356
-242.30153969205895       27.016516498050805
-242.25154969005933       27.01725641092014
-242.20155968805975       27.017996323789532
-242.1515696860601        27.01804339903697
-242.10157968406048       27.018090474284406
-242.05158968206086       27.018137549531843
-242.00159968006122       27.018861072690356
-241.95160967806163       27.019584595848812
-241.901619676062         27.020308119007268
-241.8516296740624        27.02033910642524
-241.80163967206278       27.020370093843212
-241.75164967006313       27.020401081261127
-241.70165966806354       27.02110937046882
-241.65166966606392       27.021817659676515
-241.60167966406428       27.02252594888421
-241.55168966206466       27.02254369942375
-241.50169966006507       27.022561449963234
-241.45170965806543       27.022579200502776
-241.40171965606584       27.02327605345613
-241.35172965406622       27.02397290640954
-241.30173965206657       27.024669759362894
-241.25174965006698       27.024679497639454
-241.20175964806737       27.0246892359159
-241.15176964606772       27.024698974192404
-241.1017796440681        27.025392555523922
-241.0517896420685        27.02608613685544
-241.00179964006887       27.02677971818696
-240.95180963806928       27.026794975757184
-240.90181963606966       27.02681023332741
-240.85182963407001       27.026825490897636
-240.80183963207043       27.027539804032415
-240.7518496300708        27.028254117167137
-240.70185962807116       27.02896843030186
-240.65186962607154       27.029032598704816
-240.60187962407196       27.029096767107717
-240.5518896220723        27.029160935510674
-240.50189962007272       27.02997936425652
-240.4519096180731        27.030797793002364
-240.40191961607346       27.03161622174821
-240.35192961407387       27.031893703729963
-240.30193961207425       27.03217118571166
-240.2519496100746        27.03244866769336
-240.201959608075         27.033714917058546
-240.15196960607537       27.034981166423677
-240.10197960407575       27.036247415788807
-240.05198960207616       27.03738768714709
-240.00199960007652       27.03852795850537
-239.9520095980769        27.03966822986365
-239.9020195960773        27.041497968492536
-239.85202959407766       27.043327707121477
-239.80203959207805       27.045157445750363
-239.75204959007843       27.04617068800212
-239.7020595880788        27.047183930253766
-239.6520695860792        27.048197172505468
-239.6020795840796        27.049682101122812
-239.55208958207996       27.051167029740157
-239.50209958008034       27.0526519583575
-239.45210957808075       27.053436264314996
-239.4021195760811        27.05422057027249
-239.35212957408146       27.055004876229987
-239.30213957208187       27.05628568171295
-239.25214957008225       27.057566487195857
-239.20215956808264       27.058847292678763
-239.15216956608302       27.059449156396226
-239.10217956408337       27.060051020113633
-239.05218956208375       27.06065288383104
-239.00219956008416       27.061778964741052
-238.95220955808452       27.062905045651007
-238.90221955608493       27.06403112656102
-238.8522295540853        27.064508372651744
-238.80223955208564       27.06498561874247
-238.75224955008605       27.065462864833194
-238.70225954808643       27.066550782117247
-238.65226954608684       27.0676386994013
-238.60227954408722       27.06872661668541
-238.5522895420876        27.069095271261006
-238.502299540088         27.069463925836544
-238.45230953808834       27.06983258041214
-238.40231953608873       27.070478130057495
-238.35232953408914       27.07112367970285
-238.30233953208952       27.071769229348206
-238.25234953008987       27.07225962491509
-238.20235952809026       27.072750020481976
-238.15236952609064       27.073240416048918
-238.10237952409102       27.073642032694522
-238.0523895220914        27.07404364934007
-238.0023995200918        27.074445265985673
-237.95240951809217       27.075362153230458
-237.90241951609258       27.076279040475242
-237.85242951409296       27.07719592771997
-237.80243951209334       27.07810886397675
-237.75244951009373       27.079021800233477
-237.70245950809414       27.079934736490202
-237.6524695060945        27.080523315546657
-237.60247950409487       27.081111894603055
-237.55248950209526       27.08170047365951
-237.50249950009564       27.083168869809583
-237.45250949809602       27.0846372659596
-237.40251949609643       27.086105662109617
-237.3525294940968        27.088352884360063
-237.30253949209717       27.09060010661051
-237.25254949009755       27.092847328860955
-237.20255948809796       27.09507342323701
-237.15256948609832       27.097299517613067
-237.10257948409873       27.099525611989122
-237.0525894820991        27.09954827043589
-237.00259948009946       27.099570928882713
-236.95260947809982       27.09959358732948
-236.90261947610023       27.089262194954415
-236.8526294741006        27.078930802579293
-236.80263947210096       27.06859941020423
-236.75264947010137       27.037909336456323
-236.70265946810176       27.007219262708418
-236.6526694661021        26.976529188960512
-236.6026794641025        26.924972169973444
-236.5526894621029        26.87341515098626
-236.50269946010326       26.821858131999193
-236.45270945810367       26.793653238123625
-236.40271945610405       26.765448344248114
-236.3527294541044        26.737243450372546
-236.30273945210482       26.838907848299186
-236.2527494501052        26.94057224622577
-236.20275944810555       27.04223664415241
-236.15276944610594       27.33046893436915
-236.10277944410635       27.618701224585834
-236.0527894421067        27.906933514802517
-236.0027994401071        28.24856671074167
-235.9528094381075        28.590199906680766
-235.90281943610785       28.931833102619862
-235.85282943410826       29.150492154640574
-235.80283943210864       29.369151206661286
-235.752849430109         29.587810258681998
-235.70285942810938       29.591367212492287
-235.6528694261098        29.594924166302462
-235.60287942411014       29.59848112011275
-235.55288942211055       29.351756065130076
-235.5028994201109        29.105031010147343
-235.4529094181113        28.85830595516461
-235.4029194161117        28.391878959021312
-235.35292941411205       27.925451962877958
-235.30293941211244       27.459024966734603
-235.25294941011282       27.283006609221218
-235.2029594081132        27.106988251707833
-235.15296940611358       26.930969894194448
-235.102979404114         27.48338752639529
-235.05298940211435       28.035805158596077
-235.00299940011473       28.58822279079692
-234.95300939811514       29.12818318255637
-234.9030193961155        29.668143574315764
-234.85302939411588       30.208103966075214
-234.80303939211626       30.570083465020105
-234.75304939011664       30.93206296396494
-234.70305938811703       31.29404246290983
-234.65306938611744       31.510848935143997
-234.6030793841178        31.727655407378165
-234.55308938211817       31.944461879612334
-234.50309938011858       32.00519451956632
-234.45310937811894       32.06592715952024
-234.40311937611932       32.126659799474226
-234.3531293741197        32.03177547721339
-234.30313937212009       31.936891154952548
-234.25314937012047       31.84200683269171
-234.20315936812088       31.616858881487587
-234.15316936612123       31.391710930283466
-234.10317936412162       31.166562979079345
-234.05318936212203       30.829985103875288
-234.00319936012238       30.493407228671174
-233.95320935812273       30.156829353467117
-233.90321935612312       29.653660492942322
-233.85322935412353       29.15049163241747
-233.8032393521239        28.647322771892675
-233.75324935012426       28.835321198329552
-233.70325934812465       29.023319624766486
-233.65326934612503       29.211318051203364
-233.6032793441254        29.677533632090444
-233.5532893421258        30.14374921297747
-233.5032993401262        30.60996479386455
-233.45330933812656       30.899192223520572
-233.4033193361269        31.18841965317654
-233.35332933412732       31.47764708283256
-233.3033393321277        31.673631204188496
-233.25334933012812       31.869615325544373
-233.20335932812853       32.06559944690031
-233.15336932612888       32.14769550468611
-233.10337932412926       32.22979156247197
-233.05338932212965       32.31188762025778
-233.00339932013003       32.267238925363415
-232.9534093181304        32.222590230468995
-232.90341931613082       32.17794153557463
-232.8534293141312        32.01522117892307
-232.80343931213156       31.85250082227151
-232.75344931013194       31.689780465619947
-232.70345930813235       31.472422823408635
-232.6534693061327        31.255065181197324
-232.60347930413312       31.037707538986012
-232.5534893021335        30.691390073791183
-232.50349930013385       30.345072608596297
-232.4535092981342        29.998755143401468
-232.40351929613462       29.780314527144924
-232.353529294135         29.56187391088838
-232.30353929213538       29.343433294631836
-232.25354929013577       29.767833481007642
-232.20355928813615       30.192233667383334
-232.1535692861365        30.61663385375914
-232.1035792841369        30.85682056802864
-232.0535892821373        31.09700728229808
-232.00359928013768       31.337193996567578
-231.9536092781381        31.521847009541602
-231.90361927613844       31.70650002251557
-231.8536292741388        31.891153035489538
-231.80363927213924       31.99050754386701
-231.7536492701396        32.08986205224454
-231.70365926813997       32.189216560622015
-231.65366926614038       32.17814484219463
-231.60367926414074       32.16707312376718
-231.5536892621411        32.15600140533974
-231.5036992601415        32.04448879860411
-231.45370925814188       31.93297619186842
-231.40371925614224       31.82146358513279
-231.35372925414265       31.64649952946604
-231.30373925214303       31.471535473799236
-231.2537492501434        31.29657141813243
-231.20375924814377       31.103942883781087
-231.15376924614418       30.911314349429745
-231.10377924414453       30.718685815078402
-231.05378924214494       30.34699450498408
-231.00379924014533       29.975303194889648
-230.95380923814568       29.603611884795328
-230.9038192361461        29.89890552592749
-230.85382923414645       30.194199167059594
-230.80383923214683       30.4894928081917
-230.7538492301472        30.705122895786985
-230.7038592281476        30.920752983382215
-230.65386922614798       31.136383070977445
-230.6038792241484        31.305294220702194
-230.55388922214874       31.474205370426944
-230.50389922014912       31.643116520151693
-230.45390921814953       31.74149488506231
-230.4039192161499        31.839873249972925
-230.35392921415027       31.93825161488354
-230.30393921215065       31.95720766908414
-230.25394921015103       31.9761637232848
-230.20395920815142       31.9951197774854
-230.15396920615183       31.929654370731896
-230.10397920415218       31.864188963978393
-230.05398920215256       31.79872355722489
-230.00399920015298       31.652882962484284
-229.95400919815333       31.507042367743622
-229.9040191961537        31.361201773003017
-229.8540291941541        31.214719822144104
-229.80403919215448       31.06823787128519
-229.75404919015486       30.92175592042628
-229.70405918815527       30.627667941196023
-229.65406918615562       30.333579961965768
-229.604079184156         30.039491982735512
-229.55408918215642       30.118330654598708
-229.50409918015677       30.197169326461903
-229.45410917815715       30.276007998325156
-229.40411917615754       30.508359599603068
-229.35412917415792       30.740711200880924
-229.3041391721583        30.973062802158836
-229.25414917015868       31.11191277967157
-229.20415916815907       31.250762757184248
-229.15416916615945       31.389612734696925
-229.10417916415983       31.479833820478575
-229.0541891621602        31.57005490626028
-229.0041991601606        31.66027599204193
-228.95420915816095       31.709863830317886
-228.90421915616136       31.759451668593783
-228.85422915416174       31.809039506869738
-228.80423915216213       31.764879207360195
-228.7542491501625        31.720718907850596
-228.7042591481629        31.676558608341054
-228.65426914616327       31.551753291788827
-228.60427914416366       31.4269479752366
-228.55428914216404       31.302142658684375
-228.50429914016442       31.170367401746944
-228.4543091381648        31.038592144809513
-228.4043191361652        30.906816887872026
-228.3543291341656        30.730797123639718
-228.30433913216595       30.554777359407353
-228.25434913016633       30.37875759517499
-228.20435912816674       30.260086781746963
-228.1543691261671        30.141415968318825
-228.1043791241675        30.0227451548908
-228.0543891221679        30.266355682003393
-228.00439912016824       30.50996620911593
-227.95440911816863       30.753576736228524
-227.904419116169         30.85858064895615
-227.8544291141694        30.963584561683774
-227.8044391121698        31.068588474411342
-227.75444911017016       31.179751176422087
-227.70445910817054       31.290913878432775
-227.6544691061709        31.40207658044352
-227.6044791041713        31.48324531665378
-227.5544891021717        31.564414052864038
-227.50449910017207       31.645582789074297
-227.45450909817248       31.602642208999555
-227.40451909617283       31.559701628924813
-227.3545290941732        31.51676104885007
-227.30453909217363       31.42485305890358
-227.25454909017398       31.332945068957088
-227.20455908817436       31.241037079010596
-227.15456908617477       31.12558063605036
-227.10457908417513       31.010124193090064
-227.05458908217548       30.894667750129827
-227.0045990801759        30.795334314544903
-226.95460907817628       30.69600087895992
-226.90461907617666       30.59666744337494
-226.85462907417704       30.37871063404191
-226.80463907217742       30.16075382470882
-226.75464907017778       29.94279701537579
-226.7046590681782        30.17970354201941
-226.65466906617857       30.416610068662976
-226.60467906417895       30.65351659530654
-226.55468906217936       30.736806252594477
-226.50469906017972       30.82009590988241
-226.45470905818007       30.903385567170346
-226.4047190561805        31.01885630602868
-226.35472905418086       31.134327044887016
-226.30473905218125       31.24979778374535
-226.25474905018166       31.32472000995392
-226.204759048182         31.399642236162492
-226.15476904618237       31.474564462371063
-226.10477904418278       31.424783829000717
-226.05478904218313       31.375003195630427
-226.0047990401835        31.32522256226008
-225.95480903818392       31.267335152859175
-225.90481903618428       31.209447743458213
-225.85482903418466       31.15156033405725
-225.80483903218504       31.056251399565667
-225.75484903018543       30.960942465074027
-225.7048590281858        30.865633530582386
-225.65486902618622       30.796776214156694
-225.60487902418657       30.727918897730945
-225.55488902218696       30.659061581305252
-225.50489902018737       30.440332769990277
-225.45490901818772       30.221603958675246
-225.4049190161881        30.002875147360214
-225.35492901418849       30.198454140805325
-225.30493901218887       30.394033134250435
-225.25494901018925       30.589612127695545
-225.20495900818966       30.662928841440817
-225.15496900619002       30.736245555186144
-225.1049790041904        30.809562268931415
-225.0549890021908        30.914238540889414
-225.00499900019116       31.018914812847356
-224.95500899819154       31.123591084805355
-224.90501899619193       31.18797035416037
-224.8550289941923        31.25234962351533
-224.8050389921927        31.316728892870287
-224.7550489901931        31.253388448973396
-224.70505898819346       31.190048005076505
-224.65506898619384       31.126707561179614
-224.60507898419425       31.091885622191114
-224.5550889821946        31.057063683202557
-224.505098980195         31.022241744214
-224.45510897819534       30.940808612329135
-224.40511897619575       30.85937548044427
-224.35512897419613       30.777942348559407
-224.30513897219652       30.720474212614704
-224.2551489701969        30.663006076669944
-224.20515896819728       30.60553794072524
-224.15516896619766       30.404626585554865
-224.10517896419805       30.203715230384375
-224.05518896219843       30.002803875213942
-224.00519896019878       30.17723398390052
-223.9552089581992        30.351664092587043
-223.90521895619958       30.526094201273622
-223.85522895419996       30.568095598962657
-223.80523895220034       30.610096996651635
-223.75524895020075       30.65209839434067
-223.70525894820113       30.7341838832088
-223.6552689462015        30.81626937207693
-223.6052789442019        30.898354860945005
-223.55528894220228       31.00055708531636
-223.50529894020266       31.102759309687713
-223.45530893820305       31.204961534059066
-223.40531893620343       31.136113178412188
-223.35532893420378       31.067264822765253
-223.3053389322042        30.998416467118318
-223.25534893020455       30.9265022429301
-223.20535892820493       30.85458801874188
-223.1553689262053        30.782673794553602
-223.1053789242057        30.7223597506524
-223.05538892220608       30.662045706751144
-223.00539892020646       30.601731662849886
-222.95540891820687       30.445944114640497
-222.90541891620722       30.29015656643105
-222.85542891420758       30.134369018221662
-222.80543891220802       30.180485514435702
-222.75544891020837       30.226602010649685
-222.70545890820875       30.272718506863725
-222.65546890620917       30.366857530056507
-222.60547890420952       30.46099655324923
-222.55548890220987       30.555135576442012
-222.50549890021028       30.636607427167178
-222.45550889821067       30.71807927789223
-222.40551889621105       30.799551128617395
-222.35552889421143       30.87942274729238
-222.3055388922118        30.959294365967367
-222.25554889021217       31.039165984642352
-222.20555888821258       30.95318589720273
-222.15556888621296       30.86720580976305
-222.10557888421334       30.781225722323427
-222.05558888221375       30.734821939024528
-222.0055988802141        30.688418155725685
-221.95560887821446       30.642014372426786
-221.9056188762149        30.57910906082435
-221.85562887421526       30.51620374922186
-221.80563887221564       30.453298437619424
-221.75564887021605       30.335419113793478
-221.7056588682164        30.217539789967418
-221.65566886621676       30.099660466141472
-221.60567886421717       30.112730756526673
-221.55568886221755       30.125801046911874
-221.50569886021793       30.138871337297076
-221.45570885821832       30.249791732054064
-221.40571885621867       30.360712126810995
-221.35572885421905       30.471632521567983
-221.30573885221946       30.531951883101442
-221.25574885021982       30.5922712446349
-221.20575884822023       30.65259060616836
-221.15576884622064       30.705891082319454
-221.10577884422096       30.759191558470548
-221.05578884222135       30.812492034621584
-221.0057988402218        30.66661743146608
-220.9558088382221        30.520742828310574
-220.90581883622252       30.37486822515507
-220.85582883422293       30.488960336007153
-220.80583883222326       30.60305244685918
-220.75584883022364       30.717144557711208
-220.70585882822405       30.682794443031185
-220.6558688262244        30.648444328351047
-220.6058788242248        30.614094213671024
-220.5558888222252        30.536132314068595
-220.50589882022555       30.458170414466224
-220.45590881822594       30.380208514863796
-220.40591881622632       30.32842224375554
-220.3559288142267        30.276635972647284
-220.30593881222708       30.22484970153903
-220.2559488102275        30.08604584023061
-220.20595880822785       29.947241978922136
-220.15596880622823       29.80843811761366
-220.10597880422864       29.904286492707115
-220.055988802229         30.000134867800625
-220.00599880022938       30.09598324289408
-219.95600879822973       30.181682065516043
-219.90601879623014       30.267380888138064
-219.85602879423053       30.353079710760028
-219.8060387922309        30.427292288687397
-219.7560487902313        30.50150486661471
-219.70605878823167       30.57571744454208
-219.65606878623205       30.626851422716584
-219.60607878423244       30.67798540089109
-219.55608878223282       30.729119379065594
-219.50609878023317       30.538761985651774
-219.45610877823358       30.348404592237898
-219.40611877623397       30.15804719882408
-219.35612877423435       30.234065988993166
-219.30613877223473       30.310084779162253
-219.25614877023511       30.386103569331283
-219.20615876823553       30.356788503516043
-219.15616876623588       30.327473437700746
-219.1061787642363        30.298158371885506
-219.05618876223667       30.27176695280957
-219.00619876023706       30.245375533733693
-218.95620875823744       30.218984114657758
-218.90621875623782       30.112962069293985
-218.85622875423817       30.006940023930156
-218.80623875223858       29.900917978566326
-218.75624875023897       30.10322618958753
-218.70625874823932       30.305534400608735
-218.65626874623973       30.50784261162994
-218.60627874424011       30.561334916974374
-218.55628874224047       30.61482722231881
-218.50629874024085       30.668319527663186
-218.45630873824123       30.66424104488533
-218.40631873624162       30.660162562107473
-218.35632873424203       30.656084079329617
-218.3063387322424        30.674884501505744
-218.25634873024276       30.69368492368187
-218.20635872824315       30.712485345858
-218.15636872624356       30.693486667414902
-218.10637872424394       30.674487988971748
-218.0563887222443        30.655489310528594
-218.0063987202447        30.596124990715794
-217.95640871824506       30.536760670902936
-217.9064187162454        30.477396351090135
-217.85642871424582       30.419303859263778
-217.8064387122462        30.361211367437363
-217.75644871024656       30.30311887561095
-217.70645870824697       30.143250069629687
-217.65646870624735       29.983381263648425
-217.60647870424773       29.823512457667107
-217.55648870224815       29.925641924152956
-217.5064987002485        30.027771390638748
-217.45650869824885       30.129900857124596
-217.40651869624926       30.155821736422354
-217.35652869424965       30.181742615720168
-217.30653869225          30.207663495017925
-217.25654869025038       30.197579123097228
-217.2065586882508        30.187494751176473
-217.15656868625115       30.17741037925572
-217.10657868425156       30.02050904570035
-217.05658868225194       29.86360771214504
-217.00659868025232       29.706706378589672
-216.9566086782527        29.79352093178352
-216.9066186762531        29.88033548497731
-216.85662867425344       29.9671500381711
-216.80663867225383       30.01298163639467
-216.7566486702542        30.05881323461813