% Model:              Nankai_mu012_1E10_xsw25-Results.mph
% Version:            COMSOL 5.5.0.359
% Date:               May 18 2026, 03:59
% Dimension:          1
% Nodes:              3379
% Expressions:        1
% Description:        Line graph
% X                       Height
-170                      5.6843418860808015E-14
-169.90008620262333       1.1368683772161603E-13
-169.80017240524666       5.6843418860808015E-14
-169.70025860786998       5.6843418860808015E-14
-169.60034481049325       1.1368683772161603E-13
-169.50043101311655       5.6843418860808015E-14
-169.40051721573985       5.6843418860808015E-14
-169.30060341836318       1.1368683772161603E-13
-169.20068962098648       5.6843418860808015E-14
-169.10077582360978       5.6843418860808015E-14
-169.0008620262331        1.1368683772161603E-13
-168.90094822885638       5.6843418860808015E-14
-168.80103443147968       5.6843418860808015E-14
-168.70112063410303       1.1368683772161603E-13
-168.6012068367263        5.6843418860808015E-14
-168.50129303934963       5.6843418860808015E-14
-168.40137924197296       1.1368683772161603E-13
-168.30146544459626       5.6843418860808015E-14
-168.2015516472196        5.6843418860808015E-14
-168.1016378498429        1.1368683772161603E-13
-168.0017240524662        5.6843418860808015E-14
-167.9018102550895        5.6843418860808015E-14
-167.80189645771281       1.1368683772161603E-13
-167.70198266033614       5.6843418860808015E-14
-167.60206886295944       5.6843418860808015E-14
-167.50215506558277       1.1368683772161603E-13
-167.40224126820604       5.6843418860808015E-14
-167.30232747082934       5.6843418860808015E-14
-167.20241367345267       1.1368683772161603E-13
-167.10249987607594       5.6843418860808015E-14
-167.00258607869927       5.6843418860808015E-14
-166.9026722813226        1.1368683772161603E-13
-166.8027584839459        5.6843418860808015E-14
-166.7028446865692        5.6843418860808015E-14
-166.6029308891925        1.1368683772161603E-13
-166.5030170918158        5.6843418860808015E-14
-166.40310329443912       5.6843418860808015E-14
-166.30318949706245       1.1368683772161603E-13
-166.20327569968575       5.6843418860808015E-14
-166.10336190230908       5.6843418860808015E-14
-166.00344810493237       1.1368683772161603E-13
-165.90353430755565       5.6843418860808015E-14
-165.80362051017897       5.6843418860808015E-14
-165.7037067128023        1.1368683772161603E-13
-165.60379291542563       5.6843418860808015E-14
-165.5038791180489        5.6843418860808015E-14
-165.4039653206722        1.1368683772161603E-13
-165.30405152329553       5.6843418860808015E-14
-165.20413772591883       5.6843418860808015E-14
-165.10422392854215       1.1368683772161603E-13
-165.00431013116543       5.6843418860808015E-14
-164.90439633378875       5.6843418860808015E-14
-164.80448253641208       1.1368683772161603E-13
-164.7045687390354        5.6843418860808015E-14
-164.6046549416587        5.6843418860808015E-14
-164.504741144282         1.1368683772161603E-13
-164.4048273469053        5.6843418860808015E-14
-164.30491354952864       5.6843418860808015E-14
-164.20499975215196       1.1368683772161603E-13
-164.10508595477526       5.6843418860808015E-14
-164.00517215739853       5.6843418860808015E-14
-163.90525836002186       1.1368683772161603E-13
-163.80534456264516       5.6843418860808015E-14
-163.70543076526846       5.6843418860808015E-14
-163.6055169678918        1.1368683772161603E-13
-163.5056031705151        5.6843418860808015E-14
-163.4056893731384        5.6843418860808015E-14
-163.30577557576171       1.1368683772161603E-13
-163.205861778385         5.6843418860808015E-14
-163.1059479810083        5.6843418860808015E-14
-163.0060341836316        1.1368683772161603E-13
-162.9061203862549        5.6843418860808015E-14
-162.80620658887824       5.6843418860808015E-14
-162.70629279150157       1.1368683772161603E-13
-162.60637899412487       5.6843418860808015E-14
-162.50646519674817       5.6843418860808015E-14
-162.4065513993715        1.1368683772161603E-13
-162.3066376019948        5.6843418860808015E-14
-162.20672380461812       5.6843418860808015E-14
-162.10681000724145       1.1368683772161603E-13
-162.0068962098647        5.6843418860808015E-14
-161.90698241248802       5.6843418860808015E-14
-161.80706861511135       1.1368683772161603E-13
-161.70715481773465       5.6843418860808015E-14
-161.60724102035795       5.6843418860808015E-14
-161.50732722298127       1.1368683772161603E-13
-161.40741342560455       5.6843418860808015E-14
-161.30749962822787       5.6843418860808015E-14
-161.2075858308512        1.1368683772161603E-13
-161.1076720334745        5.6843418860808015E-14
-161.00775823609783       5.6843418860808015E-14
-160.90784443872113       1.1368683772161603E-13
-160.8079306413444        5.6843418860808015E-14
-160.70801684396773       5.6843418860808015E-14
-160.60810304659105       1.1368683772161603E-13
-160.50818924921438       5.6843418860808015E-14
-160.40827545183768       5.6843418860808015E-14
-160.308361654461         1.1368683772161603E-13
-160.2084478570843        5.6843418860808015E-14
-160.1085340597076        5.6843418860808015E-14
-160.00862026233094       1.1368683772161603E-13
-159.9087064649542        5.6843418860808015E-14
-159.8087926675775        5.6843418860808015E-14
-159.70887887020083       1.1368683772161603E-13
-159.60896507282416       5.6843418860808015E-14
-159.50905127544746       5.6843418860808015E-14
-159.40913747807076       1.1368683772161603E-13
-159.30922368069406       5.6843418860808015E-14
-159.20930988331736       5.6843418860808015E-14
-159.1093960859407        1.1368683772161603E-13
-159.00948228856402       5.6843418860808015E-14
-158.90956849118731       5.6843418860808015E-14
-158.80965469381061       1.1368683772161603E-13
-158.7097408964339        5.6843418860808015E-14
-158.6098270990572        5.6843418860808015E-14
-158.50991330168054       1.1368683772161603E-13
-158.40999950430384       5.6843418860808015E-14
-158.31008570692714       5.6843418860808015E-14
-158.21017190955047       1.1368683772161603E-13
-158.11025811217377       5.6843418860808015E-14
-158.01034431479707       5.6843418860808015E-14
-157.91043051742037       1.1368683772161603E-13
-157.81051672004367       5.6843418860808015E-14
-157.710602922667         5.6843418860808015E-14
-157.61068912529032       1.1368683772161603E-13
-157.51077532791365       5.6843418860808015E-14
-157.41086153053698       5.6843418860808015E-14
-157.31094773316028       1.1368683772161603E-13
-157.21103393578358       5.6843418860808015E-14
-157.11112013840687       5.6843418860808015E-14
-157.0112063410302        1.1368683772161603E-13
-156.91129254365353       5.6843418860808015E-14
-156.8113787462768        5.6843418860808015E-14
-156.7114649489001        1.1368683772161603E-13
-156.6115511515234        5.6843418860808015E-14
-156.5116373541467        5.6843418860808015E-14
-156.41172355677003       1.1368683772161603E-13
-156.3118097593933        5.6843418860808015E-14
-156.21189596201663       5.6843418860808015E-14
-156.11198216463995       1.1368683772161603E-13
-156.01206836726325       5.6843418860808015E-14
-155.91215456988658       5.6843418860808015E-14
-155.81224077250988       1.1368683772161603E-13
-155.7123269751332        5.6843418860808015E-14
-155.6124131777565        5.6843418860808015E-14
-155.51249938037984       1.1368683772161603E-13
-155.41258558300314       5.6843418860808015E-14
-155.31267178562643       5.6843418860808015E-14
-155.21275798824976       1.1368683772161603E-13
-155.11284419087306       5.6843418860808015E-14
-155.01293039349636       5.6843418860808015E-14
-154.9130165961197        1.1368683772161603E-13
-154.81310279874296       5.6843418860808015E-14
-154.7131890013663        5.6843418860808015E-14
-154.6132752039896        1.1368683772161603E-13
-154.5133614066129        5.6843418860808015E-14
-154.4134476092362        5.6843418860808015E-14
-154.3135338118595        1.1368683772161603E-13
-154.2136200144828        5.6843418860808015E-14
-154.11370621710614       5.6843418860808015E-14
-154.01379241972947       1.1368683772161603E-13
-153.91387862235277       5.6843418860808015E-14
-153.8139648249761        5.6843418860808015E-14
-153.71405102759937       1.1368683772161603E-13
-153.6141372302227        5.6843418860808015E-14
-153.514223432846         5.6843418860808015E-14
-153.4143096354693        1.1368683772161603E-13
-153.31439583809262       5.6843418860808015E-14
-153.2144820407159        5.6843418860808015E-14
-153.11456824333922       1.1368683772161603E-13
-153.01465444596252       5.6843418860808015E-14
-152.91474064858582       5.6843418860808015E-14
-152.81482685120915       1.1368683772161603E-13
-152.71491305383245       5.6843418860808015E-14
-152.61499925645577       5.6843418860808015E-14
-152.5150854590791        1.1368683772161603E-13
-152.4151716617024        5.6843418860808015E-14
-152.31525786432573       5.6843418860808015E-14
-152.21534406694903       1.1368683772161603E-13
-152.11543026957233       5.6843418860808015E-14
-152.01551647219563       5.6843418860808015E-14
-151.91560267481896       1.1368683772161603E-13
-151.81568887744228       5.6843418860808015E-14
-151.71577508006555       5.6843418860808015E-14
-151.61586128268888       1.1368683772161603E-13
-151.51594748531218       5.6843418860808015E-14
-151.41603368793548       5.6843418860808015E-14
-151.31611989055878       1.1368683772161603E-13
-151.21620609318208       5.6843418860808015E-14
-151.11629229580538       5.6843418860808015E-14
-151.0163784984287        1.1368683772161603E-13
-150.916464701052         5.6843418860808015E-14
-150.81655090367533       5.6843418860808015E-14
-150.71663710629863       1.1368683772161603E-13
-150.61672330892196       5.6843418860808015E-14
-150.51680951154526       5.6843418860808015E-14
-150.4168957141686        1.1368683772161603E-13
-150.3169819167919        5.6843418860808015E-14
-150.2170681194152        5.6843418860808015E-14
-150.11715432203852       1.1368683772161603E-13
-150.01724052466182       5.6843418860808015E-14
-149.91732672728511       5.6843418860808015E-14
-149.81741292990844       1.1368683772161603E-13
-149.7174991325317        5.6843418860808015E-14
-149.61758533515504       5.6843418860808015E-14
-149.51767153777834       1.1368683772161603E-13
-149.41775774040167       5.6843418860808015E-14
-149.31784394302497       5.6843418860808015E-14
-149.2179301456483        1.1368683772161603E-13
-149.11801634827157       5.6843418860808015E-14
-149.01810255089487       5.6843418860808015E-14
-148.9181887535182        1.1368683772161603E-13
-148.8182749561415        5.6843418860808015E-14
-148.71836115876482       5.6843418860808015E-14
-148.61844736138812       1.1368683772161603E-13
-148.51853356401142       5.6843418860808015E-14
-148.41861976663472       5.6843418860808015E-14
-148.31870596925805       1.1368683772161603E-13
-148.21879217188138       5.6843418860808015E-14
-148.11887837450467       5.6843418860808015E-14
-148.018964577128         1.1368683772161603E-13
-147.91905077975127       5.6843418860808015E-14
-147.8191369823746        5.6843418860808015E-14
-147.71922318499793       1.1368683772161603E-13
-147.6193093876212        5.6843418860808015E-14
-147.5193955902445        5.6843418860808015E-14
-147.41948179286783       1.1368683772161603E-13
-147.31956799549116       5.6843418860808015E-14
-147.21965419811448       5.6843418860808015E-14
-147.11974040073778       1.1368683772161603E-13
-147.01982660336105       5.6843418860808015E-14
-146.91991280598435       5.6843418860808015E-14
-146.81999900860768       1.1368683772161603E-13
-146.72008521123098       5.6843418860808015E-14
-146.62017141385428       5.6843418860808015E-14
-146.52025761647758       1.1368683772161603E-13
-146.42034381910088       5.6843418860808015E-14
-146.32043002172418       5.6843418860808015E-14
-146.2205162243475        1.1368683772161603E-13
-146.1206024269708        5.6843418860808015E-14
-146.02068862959413       5.6843418860808015E-14
-145.92077483221746       1.1368683772161603E-13
-145.82086103484076       5.6843418860808015E-14
-145.7209472374641        5.6843418860808015E-14
-145.6210334400874        1.1368683772161603E-13
-145.52111964271066       5.6843418860808015E-14
-145.421205845334         5.6843418860808015E-14
-145.32129204795731       1.1368683772161603E-13
-145.2213782505806        5.6843418860808015E-14
-145.1214644532039        5.6843418860808015E-14
-145.0215506558272        1.1368683772161603E-13
-144.9216368584505        5.6843418860808015E-14
-144.8217230610738        5.6843418860808015E-14
-144.72180926369714       1.1368683772161603E-13
-144.62189546632044       5.6843418860808015E-14
-144.52198166894377       5.6843418860808015E-14
-144.42206787156707       1.1368683772161603E-13
-144.32215407419037       5.6843418860808015E-14
-144.22224027681366       5.6843418860808015E-14
-144.12232647943696       1.1368683772161603E-13
-144.02241268206026       5.6843418860808015E-14
-143.9224988846836        5.6843418860808015E-14
-143.82258508730692       1.1368683772161603E-13
-143.72267128993025       5.6843418860808015E-14
-143.62275749255357       5.6843418860808015E-14
-143.52284369517687       1.1368683772161603E-13
-143.42292989780017       5.6843418860808015E-14
-143.32301610042347       5.6843418860808015E-14
-143.2231023030468        1.1368683772161603E-13
-143.12318850567013       5.6843418860808015E-14
-143.0232747082934        5.6843418860808015E-14
-142.9233609109167        1.1368683772161603E-13
-142.82344711354          5.6843418860808015E-14
-142.7235333161633        5.6843418860808015E-14
-142.62361951878663       1.1368683772161603E-13
-142.5237057214099        5.6843418860808015E-14
-142.42379192403322       5.6843418860808015E-14
-142.32387812665655       1.1368683772161603E-13
-142.22396432927985       5.6843418860808015E-14
-142.12405053190318       5.6843418860808015E-14
-142.02413673452648       1.1368683772161603E-13
-141.92422293714975       5.6843418860808015E-14
-141.82430913977308       5.6843418860808015E-14
-141.7243953423964        1.1368683772161603E-13
-141.6244815450197        5.6843418860808015E-14
-141.524567747643         5.6843418860808015E-14
-141.4246539502663        1.1368683772161603E-13
-141.32474015288963       5.6843418860808015E-14
-141.22482635551293       5.6843418860808015E-14
-141.12491255813626       1.1368683772161603E-13
-141.02499876075956       5.6843418860808015E-14
-140.9250849633829        5.6843418860808015E-14
-140.82517116600619       1.1368683772161603E-13
-140.72525736862949       5.6843418860808015E-14
-140.62534357125278       5.6843418860808015E-14
-140.52542977387608       1.1368683772161603E-13
-140.42551597649938       5.6843418860808015E-14
-140.3256021791227        5.6843418860808015E-14
-140.225688381746         1.1368683772161603E-13
-140.12577458436934       5.6843418860808015E-14
-140.0258607869926        5.6843418860808015E-14
-139.92594698961594       1.1368683772161603E-13
-139.82603319223924       5.6843418860808015E-14
-139.72611939486256       5.6843418860808015E-14
-139.6262055974859        1.1368683772161603E-13
-139.52629180010914       5.6843418860808015E-14
-139.42637800273246       5.6843418860808015E-14
-139.3264642053558        1.1368683772161603E-13
-139.2265504079791        5.6843418860808015E-14
-139.1266366106024        5.6843418860808015E-14
-139.02672281322572       1.1368683772161603E-13
-138.92680901584902       5.6843418860808015E-14
-138.82689521847234       5.6843418860808015E-14
-138.72698142109567       1.1368683772161603E-13
-138.62706762371897       5.6843418860808015E-14
-138.5271538263423        5.6843418860808015E-14
-138.42724002896557       1.1368683772161603E-13
-138.3273262315889        5.6843418860808015E-14
-138.2274124342122        5.6843418860808015E-14
-138.12749863683553       1.1368683772161603E-13
-138.02758483945883       5.6843418860808015E-14
-137.9276710420821        5.6843418860808015E-14
-137.8277572447054        1.1368683772161603E-13
-137.72784344732872       5.6843418860808015E-14
-137.62792964995202       5.6843418860808015E-14
-137.52801585257535       1.1368683772161603E-13
-137.42810205519862       5.6843418860808015E-14
-137.32818825782195       5.6843418860808015E-14
-137.22827446044528       1.1368683772161603E-13
-137.12836066306855       5.6843418860808015E-14
-137.02844686569188       5.6843418860808015E-14
-136.92853306831518       1.1368683772161603E-13
-136.82861927093847       5.6843418860808015E-14
-136.7287054735618        5.6843418860808015E-14
-136.62879167618513       1.1368683772161603E-13
-136.52887787880843       5.6843418860808015E-14
-136.42896408143173       5.6843418860808015E-14
-136.32905028405506       1.1368683772161603E-13
-136.22913648667836       5.6843418860808015E-14
-136.12922268930168       5.6843418860808015E-14
-136.02930889192498       1.1368683772161603E-13
-135.92939509454828       5.6843418860808015E-14
-135.82948129717158       5.6843418860808015E-14
-135.7295674997949        1.1368683772161603E-13
-135.6296537024182        5.6843418860808015E-14
-135.5297399050415        5.6843418860808015E-14
-135.42982610766478       1.1368683772161603E-13
-135.3299123102881        5.6843418860808015E-14
-135.2299985129114        5.6843418860808015E-14
-135.13008471553474       1.1368683772161603E-13
-135.03017091815806       5.6843418860808015E-14
-134.9302571207814        5.6843418860808015E-14
-134.83034332340466       1.1368683772161603E-13
-134.730429526028         5.6843418860808015E-14
-134.6305157286513        5.6843418860808015E-14
-134.53060193127462       1.1368683772161603E-13
-134.43068813389792       5.6843418860808015E-14
-134.3307743365212        5.6843418860808015E-14
-134.23086053914452       1.1368683772161603E-13
-134.13094674176781       5.6843418860808015E-14
-134.03103294439114       5.6843418860808015E-14
-133.93111914701447       1.1368683772161603E-13
-133.83120534963774       5.6843418860808015E-14
-133.73129155226107       5.6843418860808015E-14
-133.6313777548844        1.1368683772161603E-13
-133.5314639575077        5.6843418860808015E-14
-133.43155016013102       5.6843418860808015E-14
-133.3316363627543        1.1368683772161603E-13
-133.2317225653776        5.6843418860808015E-14
-133.1318087680009        5.6843418860808015E-14
-133.03189497062422       1.1368683772161603E-13
-132.93198117324752       5.6843418860808015E-14
-132.83206737587082       5.6843418860808015E-14
-132.73215357849415       1.1368683772161603E-13
-132.63223978111745       5.6843418860808015E-14
-132.53232598374075       5.6843418860808015E-14
-132.43241218636408       1.1368683772161603E-13
-132.33249838898737       5.6843418860808015E-14
-132.23258459161067       5.6843418860808015E-14
-132.132670794234         1.1368683772161603E-13
-132.0327569968573        5.6843418860808015E-14
-131.9328431994806        5.6843418860808015E-14
-131.8329294021039        1.1368683772161603E-13
-131.7330156047272        5.6843418860808015E-14
-131.63310180735053       5.6843418860808015E-14
-131.53318800997386       1.1368683772161603E-13
-131.43327421259718       5.6843418860808015E-14
-131.33336041522048       5.6843418860808015E-14
-131.2334466178438        1.1368683772161603E-13
-131.13353282046708       5.6843418860808015E-14
-131.03361902309038       5.6843418860808015E-14
-130.9337052257137        1.1368683772161603E-13
-130.83379142833698       5.6843418860808015E-14
-130.7338776309603        5.6843418860808015E-14
-130.63396383358364       1.1368683772161603E-13
-130.53405003620693       5.6843418860808015E-14
-130.43413623883023       5.6843418860808015E-14
-130.33422244145353       1.1368683772161603E-13
-130.23430864407683       5.6843418860808015E-14
-130.13439484670016       5.6843418860808015E-14
-130.03448104932346       1.1368683772161603E-13
-129.9345672519468        5.6843418860808015E-14
-129.8346534545701        5.6843418860808015E-14
-129.7347396571934        1.1368683772161603E-13
-129.6348258598167        5.6843418860808015E-14
-129.53491206244          5.6843418860808015E-14
-129.4349982650633        1.1368683772161603E-13
-129.33508446768664       5.6843418860808015E-14
-129.23517067030994       5.6843418860808015E-14
-129.13525687293327       1.1368683772161603E-13
-129.03534307555657       5.6843418860808015E-14
-128.93542927817987       5.6843418860808015E-14
-128.8355154808032        1.1368683772161603E-13
-128.73560168342647       5.6843418860808015E-14
-128.63568788604977       5.6843418860808015E-14
-128.5357740886731        1.1368683772161603E-13
-128.4358602912964        5.6843418860808015E-14
-128.3359464939197        5.6843418860808015E-14
-128.23603269654302       1.1368683772161603E-13
-128.13611889916632       5.6843418860808015E-14
-128.03620510178962       5.6843418860808015E-14
-127.93629130441295       1.1368683772161603E-13
-127.83637750703623       5.6843418860808015E-14
-127.73646370965956       5.6843418860808015E-14
-127.63654991228286       1.1368683772161603E-13
-127.53663611490617       5.6843418860808015E-14
-127.43672231752949       5.6843418860808015E-14
-127.33680852015279       1.1368683772161603E-13
-127.23689472277609       5.6843418860808015E-14
-127.13698092539939       5.6843418860808015E-14
-127.03706712802273       1.1368683772161603E-13
-126.93715333064603       5.6843418860808015E-14
-126.83723953326934       5.6843418860808015E-14
-126.73732573589267       1.1368683772161603E-13
-126.63741193851595       5.6843418860808015E-14
-126.53749814113927       5.6843418860808015E-14
-126.43758434376258       1.1368683772161603E-13
-126.33767054638587       5.6843418860808015E-14
-126.23775674900918       5.6843418860808015E-14
-126.13784295163249       1.1368683772161603E-13
-126.03792915425578       5.6843418860808015E-14
-125.93801535687909       5.6843418860808015E-14
-125.8381015595024        1.1368683772161603E-13
-125.73818776212572       5.6843418860808015E-14
-125.63827396474903       5.6843418860808015E-14
-125.53836016737233       1.1368683772161603E-13
-125.43844636999566       5.6843418860808015E-14
-125.33853257261896       5.6843418860808015E-14
-125.23861877524227       1.1368683772161603E-13
-125.13870497786557       5.6843418860808015E-14
-125.03879118048887       5.6843418860808015E-14
-124.93887738311219       1.1368683772161603E-13
-124.83896358573547       5.6843418860808015E-14
-124.73904978835878       5.6843418860808015E-14
-124.63913599098211       1.1368683772161603E-13
-124.53922219360541       5.6843418860808015E-14
-124.43930839622872       5.6843418860808015E-14
-124.33939459885202       1.1368683772161603E-13
-124.23948080147535       5.6843418860808015E-14
-124.13956700409867       5.6843418860808015E-14
-124.03965320672197       1.1368683772161603E-13
-123.93973940934528       5.6843418860808015E-14
-123.83982561196859       5.6843418860808015E-14
-123.73991181459189       1.1368683772161603E-13
-123.63999801721519       5.6843418860808015E-14
-123.54008421983849       5.6843418860808015E-14
-123.4401704224618        1.1368683772161603E-13
-123.34025662508512       5.6843418860808015E-14
-123.24034282770842       5.6843418860808015E-14
-123.14042903033173       1.1368683772161603E-13
-123.04051523295504       5.6843418860808015E-14
-122.94060143557836       5.6843418860808015E-14
-122.84068763820167       1.1368683772161603E-13
-122.74077384082496       5.6843418860808015E-14
-122.64086004344827       5.6843418860808015E-14
-122.54094624607157       1.1368683772161603E-13
-122.4410324486949        5.6843418860808015E-14
-122.34111865131821       5.6843418860808015E-14
-122.24120485394151       1.1368683772161603E-13
-122.14129105656482       5.6843418860808015E-14
-122.04137725918812       5.6843418860808015E-14
-121.94146346181145       1.1368683772161603E-13
-121.84154966443477       5.6843418860808015E-14
-121.74163586705806       5.6843418860808015E-14
-121.64172206968139       1.1368683772161603E-13
-121.54180827230469       5.6843418860808015E-14
-121.44189447492798       5.6843418860808015E-14
-121.34198067755129       1.1368683772161603E-13
-121.24206688017458       5.6843418860808015E-14
-121.14215308279789       5.6843418860808015E-14
-121.0422392854212        1.1368683772161603E-13
-120.9423254880445        5.6843418860808015E-14
-120.84241169066782       5.6843418860808015E-14
-120.74249789329113       1.1368683772161603E-13
-120.64258409591444       5.6843418860808015E-14
-120.54267029853777       5.6843418860808015E-14
-120.44275650116109       1.1368683772161603E-13
-120.34284270378438       5.6843418860808015E-14
-120.24292890640767       5.6843418860808015E-14
-120.143015109031         1.1368683772161603E-13
-120.0431013116543        5.6843418860808015E-14
-119.9431875142776        5.6843418860808015E-14
-119.84327371690091       1.1368683772161603E-13
-119.74335991952421       5.6843418860808015E-14
-119.64344612214752       5.6843418860808015E-14
-119.54353232477085       1.1368683772161603E-13
-119.44361852739415       5.6843418860808015E-14
-119.34370473001746       5.6843418860808015E-14
-119.24379093264079       1.1368683772161603E-13
-119.14387713526408       5.6843418860808015E-14
-119.04396333788738       5.6843418860808015E-14
-118.94404954051069       1.1368683772161603E-13
-118.84413574313399       5.6843418860808015E-14
-118.7442219457573        5.6843418860808015E-14
-118.6443081483806        1.1368683772161603E-13
-118.54439435100392       5.6843418860808015E-14
-118.44448055362722       5.6843418860808015E-14
-118.34456675625054       1.1368683772161603E-13
-118.24465295887386       5.6843418860808015E-14
-118.14473916149716       5.6843418860808015E-14
-118.04482536412048       1.1368683772161603E-13
-117.94491156674377       5.6843418860808015E-14
-117.84499776936708       5.6843418860808015E-14
-117.7450839719904        1.1368683772161603E-13
-117.64517017461368       5.6843418860808015E-14
-117.545256377237         5.6843418860808015E-14
-117.44534257986031       1.1368683772161603E-13
-117.34542878248362       5.6843418860808015E-14
-117.24551498510694       5.6843418860808015E-14
-117.14560118773025       1.1368683772161603E-13
-117.04568739035356       5.6843418860808015E-14
-116.94577359297686       5.6843418860808015E-14
-116.84585979560018       1.1368683772161603E-13
-116.74594599822348       5.6843418860808015E-14
-116.64603220084678       5.6843418860808015E-14
-116.54611840347009       1.1368683772161603E-13
-116.44620460609337       5.6843418860808015E-14
-116.34629080871669       5.6843418860808015E-14
-116.24637701134          1.1368683772161603E-13
-116.1464632139633        5.6843418860808015E-14
-116.04654941658661       5.6843418860808015E-14
-115.94663561920994       1.1368683772161603E-13
-115.84672182183324       5.6843418860808015E-14
-115.74680802445656       5.6843418860808015E-14
-115.64689422707987       1.1368683772161603E-13
-115.54698042970317       5.6843418860808015E-14
-115.4470666323265        5.6843418860808015E-14
-115.3471528349498        1.1368683772161603E-13
-115.24723903757311       5.6843418860808015E-14
-115.1473252401964        5.6843418860808015E-14
-115.04741144281972       1.1368683772161603E-13
-114.94749764544302       5.6843418860808015E-14
-114.84758384806632       5.6843418860808015E-14
-114.74767005068965       1.1368683772161603E-13
-114.64775625331295       5.6843418860808015E-14
-114.54784245593626       5.6843418860808015E-14
-114.44792865855958       1.1368683772161603E-13
-114.34801486118286       5.6843418860808015E-14
-114.24810106380617       5.6843418860808015E-14
-114.14818726642947       1.1368683772161603E-13
-114.04827346905277       5.6843418860808015E-14
-113.94835967167609       5.6843418860808015E-14
-113.8484458742994        1.1368683772161603E-13
-113.74853207692271       5.6843418860808015E-14
-113.64861827954603       5.6843418860808015E-14
-113.54870448216936       1.1368683772161603E-13
-113.44879068479266       5.6843418860808015E-14
-113.34887688741597       5.6843418860808015E-14
-113.24896309003928       1.1368683772161603E-13
-113.14904929266258       5.6843418860808015E-14
-113.04913549528588       5.6843418860808015E-14
-112.9492216979092        1.1368683772161603E-13
-112.8493079005325        5.6843418860808015E-14
-112.7493941031558        5.6843418860808015E-14
-112.64948030577912       1.1368683772161603E-13
-112.5495665084024        5.6843418860808015E-14
-112.44965271102572       5.6843418860808015E-14
-112.34973891364903       1.1368683772161603E-13
-112.24982511627235       5.6843418860808015E-14
-112.14991131889566       5.6843418860808015E-14
-112.04999752151896       1.1368683772161603E-13
-111.95008372414226       5.6843418860808015E-14
-111.85016992676557       5.6843418860808015E-14
-111.75025612938889       1.1368683772161603E-13
-111.6503423320122        5.6843418860808015E-14
-111.55042853463549       5.6843418860808015E-14
-111.45051473725881       1.1368683772161603E-13
-111.35060093988211       5.6843418860808015E-14
-111.25068714250541       5.6843418860808015E-14
-111.15077334512875       1.1368683772161603E-13
-111.05085954775204       5.6843418860808015E-14
-110.95094575037537       5.6843418860808015E-14
-110.85103195299868       1.1368683772161603E-13
-110.75111815562197       5.6843418860808015E-14
-110.65120435824528       5.6843418860808015E-14
-110.55129056086858       1.1368683772161603E-13
-110.4513767634919        5.6843418860808015E-14
-110.35146296611521       5.6843418860808015E-14
-110.2515491687385        1.1368683772161603E-13
-110.1516353713618        5.6843418860808015E-14
-110.05172157398512       5.6843418860808015E-14
-109.95180777660843       1.1368683772161603E-13
-109.85189397923175       5.6843418860808015E-14
-109.75198018185505       5.6843418860808015E-14
-109.65206638447836       1.1368683772161603E-13
-109.55215258710165       5.6843418860808015E-14